
     Program PWSCF v.6.3MaX starts on 26Oct2025 at 20: 8:44 

     This program is part of the open-source Quantum ESPRESSO suite
     for quantum simulation of materials; please cite
         "P. Giannozzi et al., J. Phys.:Condens. Matter 21 395502 (2009);
         "P. Giannozzi et al., J. Phys.:Condens. Matter 29 465901 (2017);
          URL http://www.quantum-espresso.org", 
     in publications or presentations arising from this work. More details at
     http://www.quantum-espresso.org/quote

     Parallel version (MPI), running on     8 processors

     MPI processes distributed on     1 nodes
     R & G space division:  proc/nbgrp/npool/nimage =       8
     Reading input from qe.dat

     Current dimensions of program PWSCF are:
     Max number of different atomic species (ntypx) = 10
     Max number of k-points (npk) =  40000
     Max angular momentum in pseudopotentials (lmaxx) =  3
               file O.pbe-rrkjus.UPF: wavefunction(s)  2S renormalized
               file H.pbe-rrkjus.UPF: wavefunction(s)  1S renormalized
 
     -- for PIMD -- 
     nstep in QE input            200
     nstep in PIMD input         2000
     nstep is forced to be the value of PIMD input
     In qe_init0 ::  nstep =         2000
     ------------- 
 
     -- flag for PIMD -- 
     lscf,lforce,lstres,lmd ::  T T F T
     ------------- 
 

     ***************************************
          PIMD step =          0
     ***************************************

     ***************************************
          alat [a.u.]         8.200000
          omega[a.u.^3]     551.368000
     ***************************************

     ***************************************
          lattice vector [a.u.]
     ***************************************
       1    8.200000    0.000000    0.000000
       2    0.000000    8.200000    0.000000
       3    0.000000    0.000000    8.200000
     ***************************************

     ***************************************
          lattice vector [-]
     ***************************************
       1    1.000000    0.000000    0.000000
       2    0.000000    1.000000    0.000000
       3    0.000000    0.000000    1.000000
     ***************************************

     ***************************************
          coord_xyz [a.u.]
     ***************************************
       1    8.680664    1.574546   10.397471
       2    9.210955    0.425829   11.690206
       3    7.199259    2.363643   11.071778
       4    1.844803    3.025202    7.341943
       5    0.425829    1.961101    6.986814
       6    3.271361    2.099535    6.725505
       7   10.027825    9.759976    1.751001
       8   11.168237   10.223985    0.425829
       9   10.926328   10.136471    3.275095
      10    5.746249   12.085425    3.724416
      11    4.691800   10.656034    4.066331
      12    7.108153   11.418749    2.738171
      13    6.011585    8.752387    9.845726
      14    6.571870   10.461814    9.656356
      15    5.096398    8.403986    8.324878
      16    8.311656    5.303801    3.886858
      17    9.183985    5.545490    5.452920
      18    8.958255    6.599517    2.802904
      19   10.278970    6.199792    8.548926
      20   10.137503    4.557879    9.294600
      21    8.859502    7.115508    9.195841
      22    3.870960    7.424856    5.366508
      23    2.805542    6.061627    5.894154
      24    5.333285    6.615851    4.674377
      25   12.063538   10.652251    6.329692
      26   11.921249    9.101771    7.250391
      27   10.880245   11.763671    7.127493
      28    6.194437    0.863971    5.820602
      29    7.020572    2.086647    4.774423
      30    7.200808    0.797891    7.322193
      31    7.919878   13.321111    8.157599
      32    7.668151   15.069924    8.545167
      33    7.076224   13.081188    6.575636
      34    4.468947    4.079189   11.773305
      35    4.839550    5.836383   11.556869
      36    3.283964    3.700526   10.460159
     ***************************************

     ***************************************
          atomic position [-]
     ***************************************
       1    1.058618    0.192018    1.267984
       2    1.123287    0.051930    1.425635
       3    0.877958    0.288249    1.350217
       4    0.224976    0.368927    0.895359
       5    0.051930    0.239159    0.852050
       6    0.398947    0.256041    0.820183
       7    1.222906    1.190241    0.213537
       8    1.361980    1.246827    0.051930
       9    1.332479    1.236155    0.399402
      10    0.700762    1.473832    0.454197
      11    0.572171    1.299516    0.495894
      12    0.866848    1.392530    0.333923
      13    0.733120    1.067364    1.200698
      14    0.801448    1.275831    1.177604
      15    0.621512    1.024876    1.015229
      16    1.013617    0.646805    0.474007
      17    1.119998    0.676279    0.664990
      18    1.092470    0.804819    0.341818
      19    1.253533    0.756072    1.042552
      20    1.236281    0.555839    1.133488
      21    1.080427    0.867745    1.121444
      22    0.472068    0.905470    0.654452
      23    0.342139    0.739223    0.718799
      24    0.650401    0.806811    0.570046
      25    1.471163    1.299055    0.771914
      26    1.453811    1.109972    0.884194
      27    1.326859    1.434594    0.869206
      28    0.755419    0.105362    0.709829
      29    0.856167    0.254469    0.582247
      30    0.878147    0.097304    0.892950
      31    0.965839    1.624526    0.994829
      32    0.935140    1.837796    1.042094
      33    0.862954    1.595267    0.801907
      34    0.544994    0.497462    1.435769
      35    0.590189    0.711754    1.409374
      36    0.400483    0.451284    1.275629
     ***************************************

     Subspace diagonalization in iterative solution of the eigenvalue problem:
     a serial algorithm will be used

 
     Parallelization info
     --------------------
     sticks:   dense  smooth     PW     G-vecs:    dense   smooth      PW
     Min         455     226     55                20641     7282     892
     Max         456     227     56                20644     7285     895
     Sum        3641    1813    441               165141    58269    7153
 


     bravais-lattice index     =            0
     lattice parameter (alat)  =       8.2000  a.u.
     unit-cell volume          =     551.3680 (a.u.)^3
     number of atoms/cell      =           36
     number of atomic types    =            2
     number of electrons       =        96.00
     number of Kohn-Sham states=           58
     kinetic-energy cutoff     =      85.0000  Ry
     charge density cutoff     =     680.0000  Ry
     convergence threshold     =      1.0E-08
     mixing beta               =       0.3000
     number of iterations used =            8  plain     mixing
     Exchange-correlation      =  SLA  PW   PBE  PBE ( 1  4  3  4 0 0)
     nstep                     =         2000

 

     -- for PIMD -- 
     !!!!!!!!!!!!!!!!!!!!!!!! notice !!!!!!!!!!!!!!!!!!!!!!!!!!!!!!!!!!!
     ** Lattice vectors are forced to be those in PIMD input.         **
     ** See above. Lattice vectors in PIMD have already been written. **
     ** The following values of celldm in QE input are not used !     **

     celldm(1) =   15.495754 !!! not used !!!
     celldm(2) =    0.000000 !!! not used !!!
     celldm(3) =    0.000000 !!! not used !!!
     celldm(4) =    0.000000 !!! not used !!!
     celldm(5) =    0.000000 !!! not used !!!
     celldm(6) =    0.000000 !!! not used !!!
     !!!!!!!!!!!!!!!!!!!!!!!!!!!!!!!!!!!!!!!!!!!!!!!!!!!!!!!!!!!!!!!!!!!
     ------------- 

     crystal axes: (cart. coord. in units of alat)
               a(1) = (   1.000000   0.000000   0.000000 )  
               a(2) = (   0.000000   1.000000   0.000000 )  
               a(3) = (   0.000000   0.000000   1.000000 )  

     reciprocal axes: (cart. coord. in units 2 pi/alat)
               b(1) = (  1.000000  0.000000  0.000000 )  
               b(2) = (  0.000000  1.000000  0.000000 )  
               b(3) = (  0.000000  0.000000  1.000000 )  


     PseudoPot. # 1 for O  read from file:
     ./O.pbe-rrkjus.UPF
     MD5 check sum: 390ba29e75625707450f3bd3f0eb6be9
     Pseudo is Ultrasoft, Zval =  6.0
     Generated by new atomic code, or converted to UPF format
     Using radial grid of 1269 points,  4 beta functions with: 
                l(1) =   0
                l(2) =   0
                l(3) =   1
                l(4) =   1
     Q(r) pseudized with 0 coefficients 


     PseudoPot. # 2 for H  read from file:
     ./H.pbe-rrkjus.UPF
     MD5 check sum: 7cc9d459525c9a0585f487a71c3c9563
     Pseudo is Ultrasoft, Zval =  1.0
     Generated by new atomic code, or converted to UPF format
     Using radial grid of 1061 points,  2 beta functions with: 
                l(1) =   0
                l(2) =   0
     Q(r) pseudized with 0 coefficients 


     -- for PIMD -- 
     !!!!!!!!!!!!!!!!!!!!!!!! notice !!!!!!!!!!!!!!!!!!!!!!!!!!!!!!!!!!!!
     ** Each atomic mass is forced to be that in PIMD input.           **
     ** See above. Each atomic mass in PIMD has already been written.  **
     ** The following values of atomic mass in QE input are not used ! **

     atomic species   valence  mass(!not used)   pseudopotential
        O              6.00    15.99900          O ( 1.00)
        H              1.00     1.00800          H ( 1.00)
     !!!!!!!!!!!!!!!!!!!!!!!!!!!!!!!!!!!!!!!!!!!!!!!!!!!!!!!!!!!!!!!!!!!!
     ------------- 


     No symmetry found



   Cartesian axes

     site n.     atom                  positions (alat units)
         1           O   tau(   1) = (   1.0586176   0.1920178   1.2679842  )
         2           H   tau(   2) = (   1.1232872   0.0519304   1.4256349  )
         3           H   tau(   3) = (   0.8779584   0.2882491   1.3502168  )
         4           O   tau(   4) = (   0.2249760   0.3689271   0.8953589  )
         5           H   tau(   5) = (   0.0519304   0.2391587   0.8520505  )
         6           H   tau(   6) = (   0.3989465   0.2560408   0.8201835  )
         7           O   tau(   7) = (   1.2229055   1.1902409   0.2135367  )
         8           H   tau(   8) = (   1.3619801   1.2468274   0.0519304  )
         9           H   tau(   9) = (   1.3324790   1.2361550   0.3994019  )
        10           O   tau(  10) = (   0.7007620   1.4738323   0.4541970  )
        11           H   tau(  11) = (   0.5721708   1.2995164   0.4958941  )
        12           H   tau(  12) = (   0.8668480   1.3925303   0.3339233  )
        13           O   tau(  13) = (   0.7331201   1.0673643   1.2006982  )
        14           H   tau(  14) = (   0.8014475   1.2758310   1.1776044  )
        15           H   tau(  15) = (   0.6215120   1.0248763   1.0152290  )
        16           O   tau(  16) = (   1.0136165   0.6468050   0.4740071  )
        17           H   tau(  17) = (   1.1199982   0.6762792   0.6649902  )
        18           H   tau(  18) = (   1.0924702   0.8048191   0.3418176  )
        19           O   tau(  19) = (   1.2535329   0.7560722   1.0425519  )
        20           H   tau(  20) = (   1.2362809   0.5558389   1.1334878  )
        21           H   tau(  21) = (   1.0804271   0.8677449   1.1214441  )
        22           O   tau(  22) = (   0.4720683   0.9054703   0.6544522  )
        23           H   tau(  23) = (   0.3421393   0.7392228   0.7187992  )
        24           H   tau(  24) = (   0.6504006   0.8068111   0.5700460  )
        25           O   tau(  25) = (   1.4711632   1.2990550   0.7719137  )
        26           H   tau(  26) = (   1.4538109   1.1099720   0.8841940  )
        27           H   tau(  27) = (   1.3268591   1.4345940   0.8692064  )
        28           O   tau(  28) = (   0.7554191   0.1053624   0.7098295  )
        29           H   tau(  29) = (   0.8561673   0.2544691   0.5822467  )
        30           H   tau(  30) = (   0.8781474   0.0973038   0.8929504  )
        31           O   tau(  31) = (   0.9658387   1.6245258   0.9948292  )
        32           H   tau(  32) = (   0.9351404   1.8377956   1.0420935  )
        33           H   tau(  33) = (   0.8629542   1.5952668   0.8019068  )
        34           O   tau(  34) = (   0.5449935   0.4974621   1.4357689  )
        35           H   tau(  35) = (   0.5901891   0.7117540   1.4093742  )
        36           H   tau(  36) = (   0.4004834   0.4512836   1.2756291  )

     number of k points=     1  Fermi-Dirac smearing, width (Ry)=  0.0010
                       cart. coord. in units 2pi/alat
        k(    1) = (   0.0000000   0.0000000   0.0000000), wk =   2.0000000

     Dense  grid:   165141 G-vectors     FFT dimensions: (  72,  72,  72)

     Smooth grid:    58269 G-vectors     FFT dimensions: (  50,  50,  50)

     Estimated max dynamical RAM per process >      63.81 MB

     Estimated total dynamical RAM >     510.45 MB

     Initial potential from superposition of free atoms

     starting charge   93.69108, renormalised to   96.00000
     Starting wfcs are   72 randomized atomic wfcs

     total cpu time spent up to now is        0.1 secs

     Self-consistent Calculation

     iteration #  1     ecut=    85.00 Ry     beta= 0.30
     Davidson diagonalization with overlap
     ethr =  1.00E-02,  avg # of iterations =  3.0

     total cpu time spent up to now is        0.2 secs

     total energy              =    -385.49888999 Ry
     Harris-Foulkes estimate   =    -389.65344910 Ry
     estimated scf accuracy    <      10.19956637 Ry

     iteration #  2     ecut=    85.00 Ry     beta= 0.30
     Davidson diagonalization with overlap
     ethr =  1.00E-02,  avg # of iterations =  2.0

     total cpu time spent up to now is        0.3 secs

     total energy              =    -386.19061669 Ry
     Harris-Foulkes estimate   =    -387.05906855 Ry
     estimated scf accuracy    <       2.62693805 Ry

     iteration #  3     ecut=    85.00 Ry     beta= 0.30
     Davidson diagonalization with overlap
     ethr =  2.74E-03,  avg # of iterations =  3.0

     total cpu time spent up to now is        0.4 secs

     total energy              =    -386.24824295 Ry
     Harris-Foulkes estimate   =    -386.62052160 Ry
     estimated scf accuracy    <       1.23269626 Ry

     iteration #  4     ecut=    85.00 Ry     beta= 0.30
     Davidson diagonalization with overlap
     ethr =  1.28E-03,  avg # of iterations =  2.0

     total cpu time spent up to now is        0.4 secs

     total energy              =    -386.30081943 Ry
     Harris-Foulkes estimate   =    -386.40979954 Ry
     estimated scf accuracy    <       0.41212826 Ry

     iteration #  5     ecut=    85.00 Ry     beta= 0.30
     Davidson diagonalization with overlap
     ethr =  4.29E-04,  avg # of iterations =  1.0

     total cpu time spent up to now is        0.5 secs

     total energy              =    -386.31197926 Ry
     Harris-Foulkes estimate   =    -386.35697660 Ry
     estimated scf accuracy    <       0.22918511 Ry

     iteration #  6     ecut=    85.00 Ry     beta= 0.30
     Davidson diagonalization with overlap
     ethr =  2.39E-04,  avg # of iterations =  1.0

     total cpu time spent up to now is        0.6 secs

     total energy              =    -386.32469056 Ry
     Harris-Foulkes estimate   =    -386.33567874 Ry
     estimated scf accuracy    <       0.05616536 Ry

     iteration #  7     ecut=    85.00 Ry     beta= 0.30
     Davidson diagonalization with overlap
     ethr =  5.85E-05,  avg # of iterations =  1.0

     total cpu time spent up to now is        0.7 secs

     total energy              =    -386.32764990 Ry
     Harris-Foulkes estimate   =    -386.32917093 Ry
     estimated scf accuracy    <       0.01004525 Ry

     iteration #  8     ecut=    85.00 Ry     beta= 0.30
     Davidson diagonalization with overlap
     ethr =  1.05E-05,  avg # of iterations =  3.0

     total cpu time spent up to now is        0.7 secs

     total energy              =    -386.32809792 Ry
     Harris-Foulkes estimate   =    -386.32903546 Ry
     estimated scf accuracy    <       0.00616307 Ry

     iteration #  9     ecut=    85.00 Ry     beta= 0.30
     Davidson diagonalization with overlap
     ethr =  6.42E-06,  avg # of iterations =  1.0

     total cpu time spent up to now is        0.8 secs

     total energy              =    -386.32793860 Ry
     Harris-Foulkes estimate   =    -386.32908250 Ry
     estimated scf accuracy    <       0.01214051 Ry

     iteration # 10     ecut=    85.00 Ry     beta= 0.30
     Davidson diagonalization with overlap
     ethr =  6.42E-06,  avg # of iterations =  1.0

     total cpu time spent up to now is        0.9 secs

     total energy              =    -386.32842766 Ry
     Harris-Foulkes estimate   =    -386.32884920 Ry
     estimated scf accuracy    <       0.00532998 Ry

     iteration # 11     ecut=    85.00 Ry     beta= 0.30
     Davidson diagonalization with overlap
     ethr =  5.55E-06,  avg # of iterations =  1.0

     total cpu time spent up to now is        1.0 secs

     total energy              =    -386.32864984 Ry
     Harris-Foulkes estimate   =    -386.32873945 Ry
     estimated scf accuracy    <       0.00103602 Ry

     iteration # 12     ecut=    85.00 Ry     beta= 0.30
     Davidson diagonalization with overlap
     ethr =  1.08E-06,  avg # of iterations =  1.0

     total cpu time spent up to now is        1.0 secs

     total energy              =    -386.32869808 Ry
     Harris-Foulkes estimate   =    -386.32871781 Ry
     estimated scf accuracy    <       0.00025935 Ry

     iteration # 13     ecut=    85.00 Ry     beta= 0.30
     Davidson diagonalization with overlap
     ethr =  2.70E-07,  avg # of iterations =  1.0

     total cpu time spent up to now is        1.1 secs

     total energy              =    -386.32871057 Ry
     Harris-Foulkes estimate   =    -386.32871177 Ry
     estimated scf accuracy    <       0.00003059 Ry

     iteration # 14     ecut=    85.00 Ry     beta= 0.30
     Davidson diagonalization with overlap
     ethr =  3.19E-08,  avg # of iterations =  1.0

     total cpu time spent up to now is        1.2 secs

     total energy              =    -386.32871106 Ry
     Harris-Foulkes estimate   =    -386.32871116 Ry
     estimated scf accuracy    <       0.00000229 Ry

     iteration # 15     ecut=    85.00 Ry     beta= 0.30
     Davidson diagonalization with overlap
     ethr =  2.38E-09,  avg # of iterations =  1.0

     total cpu time spent up to now is        1.3 secs

     total energy              =    -386.32871115 Ry
     Harris-Foulkes estimate   =    -386.32871115 Ry
     estimated scf accuracy    <       0.00000005 Ry

     iteration # 16     ecut=    85.00 Ry     beta= 0.30
     Davidson diagonalization with overlap
     ethr =  4.71E-11,  avg # of iterations =  3.0

     total cpu time spent up to now is        1.3 secs

     total energy              =    -386.32871116 Ry
     Harris-Foulkes estimate   =    -386.32871116 Ry
     estimated scf accuracy    <       0.00000001 Ry

     iteration # 17     ecut=    85.00 Ry     beta= 0.30
     Davidson diagonalization with overlap
     ethr =  1.23E-11,  avg # of iterations =  2.0

     total cpu time spent up to now is        1.4 secs

     End of self-consistent calculation

          k = 0.0000 0.0000 0.0000 (  7153 PWs)   bands (ev):

   -35.2186 -30.6249 -26.9934 -15.9702 -14.9452 -12.7655 -12.6373  -9.9206
    -9.6641  -9.2446  -8.2382  -6.9713  -6.6871  -6.3276  -5.3565  -4.6292
    -3.5517  -2.8858  -1.3779  -0.7974   0.2928   2.2230   2.4000   3.4358
     3.9942   4.8561   5.3458   5.9652   7.1221   7.8040   8.1220   8.4049
     9.2089   9.8879  10.4681  10.6322  10.9993  11.6671  12.2398  13.5748
    13.8334  14.4726  16.1252  16.7908  17.4099  18.2267  19.1430  19.7618
    19.7942  20.3852  21.0559  21.2059  21.8131  23.0395  23.1270  23.9429
    24.6404  24.7723

     the Fermi energy is    19.7780 ev

!    total energy              =    -386.32871116 Ry
     Harris-Foulkes estimate   =    -386.32871116 Ry
     estimated scf accuracy    <          4.0E-09 Ry

     convergence has been achieved in  17 iterations

     Forces acting on atoms (cartesian axes, Ry/au):

     atom    1 type  1   force =    -7.27544238   -0.01871397    2.32650087
     atom    2 type  2   force =    -0.07886490   -0.37279703    0.62714547
     atom    3 type  2   force =     0.13803501   -1.10499933    0.24720504
     atom    4 type  1   force =    -5.96581945   -1.87206448    1.17747054
     atom    5 type  2   force =    -0.07133047   -0.08607942   -0.04097610
     atom    6 type  2   force =    -8.56986219   -5.44152923    5.43570856
     atom    7 type  1   force =     8.01126556   -0.08115182   -2.39666013
     atom    8 type  2   force =     0.13627145   -0.14197300    0.21552014
     atom    9 type  2   force =     0.30797137   -0.13737023    0.25211087
     atom   10 type  1   force =    12.00610246   -2.15214176    1.86005205
     atom   11 type  2   force =    -0.23377470   -1.00440151    0.21603597
     atom   12 type  2   force =    -0.01761187    1.43768976   -0.42313267
     atom   13 type  1   force =    -0.69121275   -0.36937191    0.00090275
     atom   14 type  2   force =    -0.21075902    0.07200951   -0.33362680
     atom   15 type  2   force =    -0.12980697   -0.11330671    0.03754588
     atom   16 type  1   force =     0.52125372    0.16401310    0.16453933
     atom   17 type  2   force =     0.03020844    0.03494004   -0.03418869
     atom   18 type  2   force =     0.08043223    0.06344097    0.13117895
     atom   19 type  1   force =     1.09392896    0.56212597    0.19666809
     atom   20 type  2   force =     0.17434267   -0.01801278    0.15467293
     atom   21 type  2   force =     0.19012807    0.28172469    0.09132519
     atom   22 type  1   force =    -0.36242373   -0.31735603   -0.01436334
     atom   23 type  2   force =    -0.02533999   -0.01546219    0.01932288
     atom   24 type  2   force =     0.11467816    0.10374181    0.06275484
     atom   25 type  1   force =    10.49499869    5.24148851   -6.66600225
     atom   26 type  2   force =     0.08749161   -0.59495187    0.24550252
     atom   27 type  2   force =     3.71828816    3.24593163   -0.84122405
     atom   28 type  1   force =     0.76042624   -0.18888446   -0.24554444
     atom   29 type  2   force =     0.10702669   -0.01782882    0.16870039
     atom   30 type  2   force =     0.15601850   -0.04747789    0.11081564
     atom   31 type  1   force =    -1.21192029   -0.52857790   -0.29414665
     atom   32 type  2   force =    -0.36467140    0.12356023   -0.13032511
     atom   33 type  2   force =    -0.14535860   -0.03123657   -0.02895164
     atom   34 type  1   force =   -12.37218665    2.79253285   -1.69928284
     atom   35 type  2   force =    -0.28905809    0.48418696   -0.27488649
     atom   36 type  2   force =    -0.11342459    0.04830287   -0.31836767

     Total force =    28.927682     Total SCF correction =     0.000177
 
     Parallelization info
     --------------------
     sticks:   dense  smooth     PW     G-vecs:    dense   smooth      PW
     Min         455     226     55                20641     7282     892
     Max         456     227     56                20644     7285     895
     Sum        3641    1813    441               165141    58269    7153
 


     bravais-lattice index     =            0
     lattice parameter (alat)  =       8.2000  a.u.
     unit-cell volume          =     551.3680 (a.u.)^3
     number of atoms/cell      =           36
     number of atomic types    =            2
     number of electrons       =        96.00
     number of Kohn-Sham states=           58
     kinetic-energy cutoff     =      85.0000  Ry
     charge density cutoff     =     680.0000  Ry
     convergence threshold     =      1.0E-08
     mixing beta               =       0.3000
     number of iterations used =            8  plain     mixing
     Exchange-correlation      =  SLA  PW   PBE  PBE ( 1  4  3  4 0 0)
     nstep                     =         2000

 

     -- for PIMD -- 
     !!!!!!!!!!!!!!!!!!!!!!!! notice !!!!!!!!!!!!!!!!!!!!!!!!!!!!!!!!!!!
     ** Lattice vectors are forced to be those in PIMD input.         **
     ** See above. Lattice vectors in PIMD have already been written. **
     ** The following values of celldm in QE input are not used !     **

     celldm(1) =   15.495754 !!! not used !!!
     celldm(2) =    0.000000 !!! not used !!!
     celldm(3) =    0.000000 !!! not used !!!
     celldm(4) =    0.000000 !!! not used !!!
     celldm(5) =    0.000000 !!! not used !!!
     celldm(6) =    0.000000 !!! not used !!!
     !!!!!!!!!!!!!!!!!!!!!!!!!!!!!!!!!!!!!!!!!!!!!!!!!!!!!!!!!!!!!!!!!!!
     ------------- 

     crystal axes: (cart. coord. in units of alat)
               a(1) = (   1.000000   0.000000   0.000000 )  
               a(2) = (   0.000000   1.000000   0.000000 )  
               a(3) = (   0.000000   0.000000   1.000000 )  

     reciprocal axes: (cart. coord. in units 2 pi/alat)
               b(1) = (  1.000000  0.000000  0.000000 )  
               b(2) = (  0.000000  1.000000  0.000000 )  
               b(3) = (  0.000000  0.000000  1.000000 )  


     PseudoPot. # 1 for O  read from file:
     ./O.pbe-rrkjus.UPF
     MD5 check sum: 390ba29e75625707450f3bd3f0eb6be9
     Pseudo is Ultrasoft, Zval =  6.0
     Generated by new atomic code, or converted to UPF format
     Using radial grid of 1269 points,  4 beta functions with: 
                l(1) =   0
                l(2) =   0
                l(3) =   1
                l(4) =   1
     Q(r) pseudized with 0 coefficients 


     PseudoPot. # 2 for H  read from file:
     ./H.pbe-rrkjus.UPF
     MD5 check sum: 7cc9d459525c9a0585f487a71c3c9563
     Pseudo is Ultrasoft, Zval =  1.0
     Generated by new atomic code, or converted to UPF format
     Using radial grid of 1061 points,  2 beta functions with: 
                l(1) =   0
                l(2) =   0
     Q(r) pseudized with 0 coefficients 


     -- for PIMD -- 
     !!!!!!!!!!!!!!!!!!!!!!!! notice !!!!!!!!!!!!!!!!!!!!!!!!!!!!!!!!!!!!
     ** Each atomic mass is forced to be that in PIMD input.           **
     ** See above. Each atomic mass in PIMD has already been written.  **
     ** The following values of atomic mass in QE input are not used ! **

     atomic species   valence  mass(!not used)   pseudopotential
        O              6.00    15.99900          O ( 1.00)
        H              1.00     1.00800          H ( 1.00)
     !!!!!!!!!!!!!!!!!!!!!!!!!!!!!!!!!!!!!!!!!!!!!!!!!!!!!!!!!!!!!!!!!!!!
     ------------- 


     No symmetry found



   Cartesian axes

     site n.     atom                  positions (alat units)
         1           O   tau(   1) = (   0.0554189   0.1913600   0.2692356  )
         2           H   tau(   2) = (   0.1238101   0.0502534   0.4311918  )
         3           H   tau(   3) = (   0.8762238   0.2794128   0.3536323  )
         4           O   tau(   4) = (   0.2221517   0.3683232   0.8962930  )
         5           H   tau(   5) = (   0.0480442   0.2357718   0.8528232  )
         6           H   tau(   6) = (   0.3375088   0.2182988   0.8593703  )
         7           O   tau(   7) = (   0.2268324   0.1904808   0.2132337  )
         8           H   tau(   8) = (   0.3621159   0.2470749   0.0524472  )
         9           H   tau(   9) = (   0.3339902   0.2360797   0.4033837  )
        10           O   tau(  10) = (   0.7058792   0.4725658   0.4549036  )
        11           H   tau(  11) = (   0.5757962   0.2924877   0.4939977  )
        12           H   tau(  12) = (   0.8665598   0.3989726   0.3272479  )
        13           O   tau(  13) = (   0.7324370   0.0673295   0.2010688  )
        14           H   tau(  14) = (   0.7996822   0.2762519   0.1757189  )
        15           H   tau(  15) = (   0.6180017   0.0219201   0.0146579  )
        16           O   tau(  16) = (   0.0142368   0.6472602   0.4743549  )
        17           H   tau(  17) = (   0.1214911   0.6740669   0.6620761  )
        18           H   tau(  18) = (   0.0915332   0.8023696   0.3406248  )
        19           O   tau(  19) = (   0.2545087   0.7562414   0.0423698  )
        20           H   tau(  20) = (   0.2353127   0.5543660   0.1334194  )
        21           H   tau(  21) = (   0.0862750   0.8720860   0.1219659  )
        22           O   tau(  22) = (   0.4717666   0.9068190   0.6546520  )
        23           H   tau(  23) = (   0.3434664   0.7391540   0.7188344  )
        24           H   tau(  24) = (   0.6501647   0.8058182   0.5725633  )
        25           O   tau(  25) = (   0.4761357   0.3015993   0.7686883  )
        26           H   tau(  26) = (   0.4504353   0.1075912   0.8874764  )
        27           H   tau(  27) = (   0.3494834   0.4557077   0.8619301  )
        28           O   tau(  28) = (   0.7556128   0.1049187   0.7088665  )
        29           H   tau(  29) = (   0.8571722   0.2515914   0.5817841  )
        30           H   tau(  30) = (   0.8772864   0.0928381   0.8941206  )
        31           O   tau(  31) = (   0.9656904   0.6251868   0.9948431  )
        32           H   tau(  32) = (   0.9313116   0.8355598   0.0404358  )
        33           H   tau(  33) = (   0.8621702   0.5937741   0.8027352  )
        34           O   tau(  34) = (   0.5395828   0.4985537   0.4345595  )
        35           H   tau(  35) = (   0.5900253   0.7112712   0.4057648  )
        36           H   tau(  36) = (   0.3999141   0.4497454   0.2751578  )

     number of k points=     1  Fermi-Dirac smearing, width (Ry)=  0.0010
                       cart. coord. in units 2pi/alat
        k(    1) = (   0.0000000   0.0000000   0.0000000), wk =   2.0000000

     Dense  grid:   165141 G-vectors     FFT dimensions: (  72,  72,  72)

     Smooth grid:    58269 G-vectors     FFT dimensions: (  50,  50,  50)

     Estimated max dynamical RAM per process >      63.82 MB

     Estimated total dynamical RAM >     510.56 MB

     Initial potential from superposition of free atoms

     starting charge   93.69108, renormalised to   96.00000
     Starting wfcs are   72 randomized atomic wfcs

     convergence has been achieved in  18 iterations
 
     Parallelization info
     --------------------
     sticks:   dense  smooth     PW     G-vecs:    dense   smooth      PW
     Min         455     226     55                20641     7282     892
     Max         456     227     56                20644     7285     895
     Sum        3641    1813    441               165141    58269    7153
 


     bravais-lattice index     =            0
     lattice parameter (alat)  =       8.2000  a.u.
     unit-cell volume          =     551.3680 (a.u.)^3
     number of atoms/cell      =           36
     number of atomic types    =            2
     number of electrons       =        96.00
     number of Kohn-Sham states=           58
     kinetic-energy cutoff     =      85.0000  Ry
     charge density cutoff     =     680.0000  Ry
     convergence threshold     =      1.0E-08
     mixing beta               =       0.3000
     number of iterations used =            8  plain     mixing
     Exchange-correlation      =  SLA  PW   PBE  PBE ( 1  4  3  4 0 0)
     nstep                     =         2000

 

     -- for PIMD -- 
     !!!!!!!!!!!!!!!!!!!!!!!! notice !!!!!!!!!!!!!!!!!!!!!!!!!!!!!!!!!!!
     ** Lattice vectors are forced to be those in PIMD input.         **
     ** See above. Lattice vectors in PIMD have already been written. **
     ** The following values of celldm in QE input are not used !     **

     celldm(1) =   15.495754 !!! not used !!!
     celldm(2) =    0.000000 !!! not used !!!
     celldm(3) =    0.000000 !!! not used !!!
     celldm(4) =    0.000000 !!! not used !!!
     celldm(5) =    0.000000 !!! not used !!!
     celldm(6) =    0.000000 !!! not used !!!
     !!!!!!!!!!!!!!!!!!!!!!!!!!!!!!!!!!!!!!!!!!!!!!!!!!!!!!!!!!!!!!!!!!!
     ------------- 

     crystal axes: (cart. coord. in units of alat)
               a(1) = (   1.000000   0.000000   0.000000 )  
               a(2) = (   0.000000   1.000000   0.000000 )  
               a(3) = (   0.000000   0.000000   1.000000 )  

     reciprocal axes: (cart. coord. in units 2 pi/alat)
               b(1) = (  1.000000  0.000000  0.000000 )  
               b(2) = (  0.000000  1.000000  0.000000 )  
               b(3) = (  0.000000  0.000000  1.000000 )  


     PseudoPot. # 1 for O  read from file:
     ./O.pbe-rrkjus.UPF
     MD5 check sum: 390ba29e75625707450f3bd3f0eb6be9
     Pseudo is Ultrasoft, Zval =  6.0
     Generated by new atomic code, or converted to UPF format
     Using radial grid of 1269 points,  4 beta functions with: 
                l(1) =   0
                l(2) =   0
                l(3) =   1
                l(4) =   1
     Q(r) pseudized with 0 coefficients 


     PseudoPot. # 2 for H  read from file:
     ./H.pbe-rrkjus.UPF
     MD5 check sum: 7cc9d459525c9a0585f487a71c3c9563
     Pseudo is Ultrasoft, Zval =  1.0
     Generated by new atomic code, or converted to UPF format
     Using radial grid of 1061 points,  2 beta functions with: 
                l(1) =   0
                l(2) =   0
     Q(r) pseudized with 0 coefficients 


     -- for PIMD -- 
     !!!!!!!!!!!!!!!!!!!!!!!! notice !!!!!!!!!!!!!!!!!!!!!!!!!!!!!!!!!!!!
     ** Each atomic mass is forced to be that in PIMD input.           **
     ** See above. Each atomic mass in PIMD has already been written.  **
     ** The following values of atomic mass in QE input are not used ! **

     atomic species   valence  mass(!not used)   pseudopotential
        O              6.00    15.99900          O ( 1.00)
        H              1.00     1.00800          H ( 1.00)
     !!!!!!!!!!!!!!!!!!!!!!!!!!!!!!!!!!!!!!!!!!!!!!!!!!!!!!!!!!!!!!!!!!!!
     ------------- 


     No symmetry found



   Cartesian axes

     site n.     atom                  positions (alat units)
         1           O   tau(   1) = (   0.0516888   0.1907189   0.2713397  )
         2           H   tau(   2) = (   0.1237096   0.0443208   0.4400434  )
         3           H   tau(   3) = (   0.8755691   0.2708721   0.3608664  )
         4           O   tau(   4) = (   0.2197780   0.3676529   0.8977439  )
         5           H   tau(   5) = (   0.0428248   0.2300507   0.8532284  )
         6           H   tau(   6) = (   0.3305310   0.2089177   0.8629542  )
         7           O   tau(   7) = (   0.2308389   0.1905580   0.2112542  )
         8           H   tau(   8) = (   0.3652257   0.2455201   0.0564243  )
         9           H   tau(   9) = (   0.3382197   0.2340790   0.4079013  )
        10           O   tau(  10) = (   0.7108356   0.4706290   0.4567135  )
        11           H   tau(  11) = (   0.5773600   0.2823336   0.4945809  )
        12           H   tau(  12) = (   0.8671810   0.4094271   0.3208777  )
        13           O   tau(  13) = (   0.7314335   0.0670089   0.2014021  )
        14           H   tau(  14) = (   0.7956102   0.2778962   0.1683280  )
        15           H   tau(  15) = (   0.6132059   0.0187035   0.0149881  )
        16           O   tau(  16) = (   0.0150325   0.6476873   0.4746856  )
        17           H   tau(  17) = (   0.1231223   0.6727081   0.6590659  )
        18           H   tau(  18) = (   0.0918205   0.8007871   0.3414093  )
        19           O   tau(  19) = (   0.2563232   0.7567390   0.0423456  )
        20           H   tau(  20) = (   0.2366620   0.5523181   0.1354816  )
        21           H   tau(  21) = (   0.0933463   0.8769214   0.1227035  )
        22           O   tau(  22) = (   0.4713274   0.9077212   0.6549163  )
        23           H   tau(  23) = (   0.3453782   0.7390499   0.7189556  )
        24           H   tau(  24) = (   0.6512562   0.8059658   0.5743511  )
        25           O   tau(  25) = (   0.4779967   0.3028020   0.7671092  )
        26           H   tau(  26) = (   0.4504412   0.0995741   0.8905525  )
        27           H   tau(  27) = (   0.3614393   0.4693867   0.8571986  )
        28           O   tau(  28) = (   0.7562610   0.1044556   0.7080108  )
        29           H   tau(  29) = (   0.8597599   0.2478462   0.5836844  )
        30           H   tau(  30) = (   0.8787769   0.0885757   0.8994889  )
        31           O   tau(  31) = (   0.9641171   0.6256724   0.9945846  )
        32           H   tau(  32) = (   0.9219045   0.8341938   0.0364089  )
        33           H   tau(  33) = (   0.8591406   0.5922877   0.8033006  )
        34           O   tau(  34) = (   0.5345340   0.5007166   0.4326971  )
        35           H   tau(  35) = (   0.5872587   0.7172753   0.3972211  )
        36           H   tau(  36) = (   0.3976747   0.4487451   0.2710103  )

     number of k points=     1  Fermi-Dirac smearing, width (Ry)=  0.0010
                       cart. coord. in units 2pi/alat
        k(    1) = (   0.0000000   0.0000000   0.0000000), wk =   2.0000000

     Dense  grid:   165141 G-vectors     FFT dimensions: (  72,  72,  72)

     Smooth grid:    58269 G-vectors     FFT dimensions: (  50,  50,  50)

     Estimated max dynamical RAM per process >      63.82 MB

     Estimated total dynamical RAM >     510.56 MB

     Initial potential from superposition of free atoms

     starting charge   93.69108, renormalised to   96.00000
     Starting wfcs are   72 randomized atomic wfcs

     convergence has been achieved in  18 iterations
 
     Parallelization info
     --------------------
     sticks:   dense  smooth     PW     G-vecs:    dense   smooth      PW
     Min         455     226     55                20641     7282     892
     Max         456     227     56                20644     7285     895
     Sum        3641    1813    441               165141    58269    7153
 


     bravais-lattice index     =            0
     lattice parameter (alat)  =       8.2000  a.u.
     unit-cell volume          =     551.3680 (a.u.)^3
     number of atoms/cell      =           36
     number of atomic types    =            2
     number of electrons       =        96.00
     number of Kohn-Sham states=           58
     kinetic-energy cutoff     =      85.0000  Ry
     charge density cutoff     =     680.0000  Ry
     convergence threshold     =      1.0E-08
     mixing beta               =       0.3000
     number of iterations used =            8  plain     mixing
     Exchange-correlation      =  SLA  PW   PBE  PBE ( 1  4  3  4 0 0)
     nstep                     =         2000

 

     -- for PIMD -- 
     !!!!!!!!!!!!!!!!!!!!!!!! notice !!!!!!!!!!!!!!!!!!!!!!!!!!!!!!!!!!!
     ** Lattice vectors are forced to be those in PIMD input.         **
     ** See above. Lattice vectors in PIMD have already been written. **
     ** The following values of celldm in QE input are not used !     **

     celldm(1) =   15.495754 !!! not used !!!
     celldm(2) =    0.000000 !!! not used !!!
     celldm(3) =    0.000000 !!! not used !!!
     celldm(4) =    0.000000 !!! not used !!!
     celldm(5) =    0.000000 !!! not used !!!
     celldm(6) =    0.000000 !!! not used !!!
     !!!!!!!!!!!!!!!!!!!!!!!!!!!!!!!!!!!!!!!!!!!!!!!!!!!!!!!!!!!!!!!!!!!
     ------------- 

     crystal axes: (cart. coord. in units of alat)
               a(1) = (   1.000000   0.000000   0.000000 )  
               a(2) = (   0.000000   1.000000   0.000000 )  
               a(3) = (   0.000000   0.000000   1.000000 )  

     reciprocal axes: (cart. coord. in units 2 pi/alat)
               b(1) = (  1.000000  0.000000  0.000000 )  
               b(2) = (  0.000000  1.000000  0.000000 )  
               b(3) = (  0.000000  0.000000  1.000000 )  


     PseudoPot. # 1 for O  read from file:
     ./O.pbe-rrkjus.UPF
     MD5 check sum: 390ba29e75625707450f3bd3f0eb6be9
     Pseudo is Ultrasoft, Zval =  6.0
     Generated by new atomic code, or converted to UPF format
     Using radial grid of 1269 points,  4 beta functions with: 
                l(1) =   0
                l(2) =   0
                l(3) =   1
                l(4) =   1
     Q(r) pseudized with 0 coefficients 


     PseudoPot. # 2 for H  read from file:
     ./H.pbe-rrkjus.UPF
     MD5 check sum: 7cc9d459525c9a0585f487a71c3c9563
     Pseudo is Ultrasoft, Zval =  1.0
     Generated by new atomic code, or converted to UPF format
     Using radial grid of 1061 points,  2 beta functions with: 
                l(1) =   0
                l(2) =   0
     Q(r) pseudized with 0 coefficients 


     -- for PIMD -- 
     !!!!!!!!!!!!!!!!!!!!!!!! notice !!!!!!!!!!!!!!!!!!!!!!!!!!!!!!!!!!!!
     ** Each atomic mass is forced to be that in PIMD input.           **
     ** See above. Each atomic mass in PIMD has already been written.  **
     ** The following values of atomic mass in QE input are not used ! **

     atomic species   valence  mass(!not used)   pseudopotential
        O              6.00    15.99900          O ( 1.00)
        H              1.00     1.00800          H ( 1.00)
     !!!!!!!!!!!!!!!!!!!!!!!!!!!!!!!!!!!!!!!!!!!!!!!!!!!!!!!!!!!!!!!!!!!!
     ------------- 


     No symmetry found



   Cartesian axes

     site n.     atom                  positions (alat units)
         1           O   tau(   1) = (   0.0486070   0.1901576   0.2730117  )
         2           H   tau(   2) = (   0.1230367   0.0385160   0.4469878  )
         3           H   tau(   3) = (   0.8750336   0.2648416   0.3661619  )
         4           O   tau(   4) = (   0.2178863   0.3672501   0.8986687  )
         5           H   tau(   5) = (   0.0386710   0.2256240   0.8535991  )
         6           H   tau(   6) = (   0.3237987   0.2002059   0.8640300  )
         7           O   tau(   7) = (   0.2342339   0.1905251   0.2095162  )
         8           H   tau(   8) = (   0.3709921   0.2428291   0.0605985  )
         9           H   tau(   9) = (   0.3423655   0.2306557   0.4115877  )
        10           O   tau(  10) = (   0.7149147   0.4689828   0.4583152  )
        11           H   tau(  11) = (   0.5766392   0.2732925   0.4963762  )
        12           H   tau(  12) = (   0.8694400   0.4172159   0.3147902  )
        13           O   tau(  13) = (   0.7303977   0.0664810   0.2016978  )
        14           H   tau(  14) = (   0.7909150   0.2811751   0.1625524  )
        15           H   tau(  15) = (   0.6090774   0.0156922   0.0167204  )
        16           O   tau(  16) = (   0.0160366   0.6481656   0.4750053  )
        17           H   tau(  17) = (   0.1249674   0.6719704   0.6567709  )
        18           H   tau(  18) = (   0.0931715   0.8001225   0.3434056  )
        19           O   tau(  19) = (   0.2574978   0.7574097   0.0425888  )
        20           H   tau(  20) = (   0.2399689   0.5496855   0.1392098  )
        21           H   tau(  21) = (   0.0970885   0.8809679   0.1231167  )
        22           O   tau(  22) = (   0.4707832   0.9080313   0.6553275  )
        23           H   tau(  23) = (   0.3480368   0.7389087   0.7191618  )
        24           H   tau(  24) = (   0.6527583   0.8073024   0.5757129  )
        25           O   tau(  25) = (   0.4796384   0.3034896   0.7659533  )
        26           H   tau(  26) = (   0.4529938   0.0931887   0.8932103  )
        27           H   tau(  27) = (   0.3693198   0.4797923   0.8545777  )
        28           O   tau(  28) = (   0.7572309   0.1039508   0.7074003  )
        29           H   tau(  29) = (   0.8635638   0.2442090   0.5879434  )
        30           H   tau(  30) = (   0.8812500   0.0853720   0.9074964  )
        31           O   tau(  31) = (   0.9623369   0.6258808   0.9940226  )
        32           H   tau(  32) = (   0.9165809   0.8339813   0.0315205  )
        33           H   tau(  33) = (   0.8545482   0.5907644   0.8038202  )
        34           O   tau(  34) = (   0.5302772   0.5025523   0.4314057  )
        35           H   tau(  35) = (   0.5837757   0.7242335   0.3925433  )
        36           H   tau(  36) = (   0.3939908   0.4482232   0.2660714  )

     number of k points=     1  Fermi-Dirac smearing, width (Ry)=  0.0010
                       cart. coord. in units 2pi/alat
        k(    1) = (   0.0000000   0.0000000   0.0000000), wk =   2.0000000

     Dense  grid:   165141 G-vectors     FFT dimensions: (  72,  72,  72)

     Smooth grid:    58269 G-vectors     FFT dimensions: (  50,  50,  50)

     Estimated max dynamical RAM per process >      63.82 MB

     Estimated total dynamical RAM >     510.56 MB

     Initial potential from superposition of free atoms

     starting charge   93.69108, renormalised to   96.00000
     Starting wfcs are   72 randomized atomic wfcs

     convergence has been achieved in  18 iterations
 
     Parallelization info
     --------------------
     sticks:   dense  smooth     PW     G-vecs:    dense   smooth      PW
     Min         455     226     55                20641     7282     892
     Max         456     227     56                20644     7285     895
     Sum        3641    1813    441               165141    58269    7153
 


     bravais-lattice index     =            0
     lattice parameter (alat)  =       8.2000  a.u.
     unit-cell volume          =     551.3680 (a.u.)^3
     number of atoms/cell      =           36
     number of atomic types    =            2
     number of electrons       =        96.00
     number of Kohn-Sham states=           58
     kinetic-energy cutoff     =      85.0000  Ry
     charge density cutoff     =     680.0000  Ry
     convergence threshold     =      1.0E-08
     mixing beta               =       0.3000
     number of iterations used =            8  plain     mixing
     Exchange-correlation      =  SLA  PW   PBE  PBE ( 1  4  3  4 0 0)
     nstep                     =         2000

 

     -- for PIMD -- 
     !!!!!!!!!!!!!!!!!!!!!!!! notice !!!!!!!!!!!!!!!!!!!!!!!!!!!!!!!!!!!
     ** Lattice vectors are forced to be those in PIMD input.         **
     ** See above. Lattice vectors in PIMD have already been written. **
     ** The following values of celldm in QE input are not used !     **

     celldm(1) =   15.495754 !!! not used !!!
     celldm(2) =    0.000000 !!! not used !!!
     celldm(3) =    0.000000 !!! not used !!!
     celldm(4) =    0.000000 !!! not used !!!
     celldm(5) =    0.000000 !!! not used !!!
     celldm(6) =    0.000000 !!! not used !!!
     !!!!!!!!!!!!!!!!!!!!!!!!!!!!!!!!!!!!!!!!!!!!!!!!!!!!!!!!!!!!!!!!!!!
     ------------- 

     crystal axes: (cart. coord. in units of alat)
               a(1) = (   1.000000   0.000000   0.000000 )  
               a(2) = (   0.000000   1.000000   0.000000 )  
               a(3) = (   0.000000   0.000000   1.000000 )  

     reciprocal axes: (cart. coord. in units 2 pi/alat)
               b(1) = (  1.000000  0.000000  0.000000 )  
               b(2) = (  0.000000  1.000000  0.000000 )  
               b(3) = (  0.000000  0.000000  1.000000 )  


     PseudoPot. # 1 for O  read from file:
     ./O.pbe-rrkjus.UPF
     MD5 check sum: 390ba29e75625707450f3bd3f0eb6be9
     Pseudo is Ultrasoft, Zval =  6.0
     Generated by new atomic code, or converted to UPF format
     Using radial grid of 1269 points,  4 beta functions with: 
                l(1) =   0
                l(2) =   0
                l(3) =   1
                l(4) =   1
     Q(r) pseudized with 0 coefficients 


     PseudoPot. # 2 for H  read from file:
     ./H.pbe-rrkjus.UPF
     MD5 check sum: 7cc9d459525c9a0585f487a71c3c9563
     Pseudo is Ultrasoft, Zval =  1.0
     Generated by new atomic code, or converted to UPF format
     Using radial grid of 1061 points,  2 beta functions with: 
                l(1) =   0
                l(2) =   0
     Q(r) pseudized with 0 coefficients 


     -- for PIMD -- 
     !!!!!!!!!!!!!!!!!!!!!!!! notice !!!!!!!!!!!!!!!!!!!!!!!!!!!!!!!!!!!!
     ** Each atomic mass is forced to be that in PIMD input.           **
     ** See above. Each atomic mass in PIMD has already been written.  **
     ** The following values of atomic mass in QE input are not used ! **

     atomic species   valence  mass(!not used)   pseudopotential
        O              6.00    15.99900          O ( 1.00)
        H              1.00     1.00800          H ( 1.00)
     !!!!!!!!!!!!!!!!!!!!!!!!!!!!!!!!!!!!!!!!!!!!!!!!!!!!!!!!!!!!!!!!!!!!
     ------------- 


     No symmetry found



   Cartesian axes

     site n.     atom                  positions (alat units)
         1           O   tau(   1) = (   0.0457986   0.1897024   0.2745211  )
         2           H   tau(   2) = (   0.1216600   0.0338726   0.4538787  )
         3           H   tau(   3) = (   0.8740306   0.2602083   0.3703798  )
         4           O   tau(   4) = (   0.2162076   0.3672162   0.8989311  )
         5           H   tau(   5) = (   0.0352650   0.2229055   0.8543629  )
         6           H   tau(   6) = (   0.3174453   0.1919892   0.8637396  )
         7           O   tau(   7) = (   0.2373492   0.1903805   0.2081772  )
         8           H   tau(   8) = (   0.3760210   0.2399394   0.0638643  )
         9           H   tau(   9) = (   0.3463352   0.2267747   0.4156467  )
        10           O   tau(  10) = (   0.7184293   0.4675057   0.4596641  )
        11           H   tau(  11) = (   0.5720033   0.2654922   0.4983931  )
        12           H   tau(  12) = (   0.8732806   0.4237904   0.3085959  )
        13           O   tau(  13) = (   0.7293971   0.0658282   0.2019773  )
        14           H   tau(  14) = (   0.7866940   0.2854881   0.1580758  )
        15           H   tau(  15) = (   0.6059255   0.0126896   0.0206035  )
        16           O   tau(  16) = (   0.0171674   0.6487378   0.4753173  )
        17           H   tau(  17) = (   0.1270374   0.6716749   0.6556090  )
        18           H   tau(  18) = (   0.0952751   0.8004399   0.3456732  )
        19           O   tau(  19) = (   0.2585631   0.7581260   0.0432317  )
        20           H   tau(  20) = (   0.2444070   0.5466736   0.1432331  )
        21           H   tau(  21) = (   0.1002192   0.8850624   0.1231603  )
        22           O   tau(  22) = (   0.4701588   0.9079489   0.6560193  )
        23           H   tau(  23) = (   0.3512322   0.7384376   0.7195553  )
        24           H   tau(  24) = (   0.6547984   0.8103556   0.5769592  )
        25           O   tau(  25) = (   0.4812107   0.3042269   0.7649083  )
        26           H   tau(  26) = (   0.4571619   0.0870500   0.8962373  )
        27           H   tau(  27) = (   0.3758681   0.4887582   0.8524991  )
        28           O   tau(  28) = (   0.7582632   0.1033901   0.7069406  )
        29           H   tau(  29) = (   0.8673847   0.2414437   0.5925949  )
        30           H   tau(  30) = (   0.8842473   0.0828459   0.9113010  )
        31           O   tau(  31) = (   0.9611644   0.6257632   0.9931735  )
        32           H   tau(  32) = (   0.9121192   0.8353267   0.0277703  )
        33           H   tau(  33) = (   0.8502561   0.5892053   0.8045701  )
        34           O   tau(  34) = (   0.5265944   0.5042613   0.4301891  )
        35           H   tau(  35) = (   0.5803661   0.7298632   0.3883853  )
        36           H   tau(  36) = (   0.3901059   0.4485312   0.2618939  )

     number of k points=     1  Fermi-Dirac smearing, width (Ry)=  0.0010
                       cart. coord. in units 2pi/alat
        k(    1) = (   0.0000000   0.0000000   0.0000000), wk =   2.0000000

     Dense  grid:   165141 G-vectors     FFT dimensions: (  72,  72,  72)

     Smooth grid:    58269 G-vectors     FFT dimensions: (  50,  50,  50)

     Estimated max dynamical RAM per process >      63.82 MB

     Estimated total dynamical RAM >     510.56 MB

     Initial potential from superposition of free atoms

     starting charge   93.69108, renormalised to   96.00000
     Starting wfcs are   72 randomized atomic wfcs

     convergence has been achieved in  19 iterations
 
     Parallelization info
     --------------------
     sticks:   dense  smooth     PW     G-vecs:    dense   smooth      PW
     Min         455     226     55                20641     7282     892
     Max         456     227     56                20644     7285     895
     Sum        3641    1813    441               165141    58269    7153
 


     bravais-lattice index     =            0
     lattice parameter (alat)  =       8.2000  a.u.
     unit-cell volume          =     551.3680 (a.u.)^3
     number of atoms/cell      =           36
     number of atomic types    =            2
     number of electrons       =        96.00
     number of Kohn-Sham states=           58
     kinetic-energy cutoff     =      85.0000  Ry
     charge density cutoff     =     680.0000  Ry
     convergence threshold     =      1.0E-08
     mixing beta               =       0.3000
     number of iterations used =            8  plain     mixing
     Exchange-correlation      =  SLA  PW   PBE  PBE ( 1  4  3  4 0 0)
     nstep                     =         2000

 

     -- for PIMD -- 
     !!!!!!!!!!!!!!!!!!!!!!!! notice !!!!!!!!!!!!!!!!!!!!!!!!!!!!!!!!!!!
     ** Lattice vectors are forced to be those in PIMD input.         **
     ** See above. Lattice vectors in PIMD have already been written. **
     ** The following values of celldm in QE input are not used !     **

     celldm(1) =   15.495754 !!! not used !!!
     celldm(2) =    0.000000 !!! not used !!!
     celldm(3) =    0.000000 !!! not used !!!
     celldm(4) =    0.000000 !!! not used !!!
     celldm(5) =    0.000000 !!! not used !!!
     celldm(6) =    0.000000 !!! not used !!!
     !!!!!!!!!!!!!!!!!!!!!!!!!!!!!!!!!!!!!!!!!!!!!!!!!!!!!!!!!!!!!!!!!!!
     ------------- 

     crystal axes: (cart. coord. in units of alat)
               a(1) = (   1.000000   0.000000   0.000000 )  
               a(2) = (   0.000000   1.000000   0.000000 )  
               a(3) = (   0.000000   0.000000   1.000000 )  

     reciprocal axes: (cart. coord. in units 2 pi/alat)
               b(1) = (  1.000000  0.000000  0.000000 )  
               b(2) = (  0.000000  1.000000  0.000000 )  
               b(3) = (  0.000000  0.000000  1.000000 )  


     PseudoPot. # 1 for O  read from file:
     ./O.pbe-rrkjus.UPF
     MD5 check sum: 390ba29e75625707450f3bd3f0eb6be9
     Pseudo is Ultrasoft, Zval =  6.0
     Generated by new atomic code, or converted to UPF format
     Using radial grid of 1269 points,  4 beta functions with: 
                l(1) =   0
                l(2) =   0
                l(3) =   1
                l(4) =   1
     Q(r) pseudized with 0 coefficients 


     PseudoPot. # 2 for H  read from file:
     ./H.pbe-rrkjus.UPF
     MD5 check sum: 7cc9d459525c9a0585f487a71c3c9563
     Pseudo is Ultrasoft, Zval =  1.0
     Generated by new atomic code, or converted to UPF format
     Using radial grid of 1061 points,  2 beta functions with: 
                l(1) =   0
                l(2) =   0
     Q(r) pseudized with 0 coefficients 


     -- for PIMD -- 
     !!!!!!!!!!!!!!!!!!!!!!!! notice !!!!!!!!!!!!!!!!!!!!!!!!!!!!!!!!!!!!
     ** Each atomic mass is forced to be that in PIMD input.           **
     ** See above. Each atomic mass in PIMD has already been written.  **
     ** The following values of atomic mass in QE input are not used ! **

     atomic species   valence  mass(!not used)   pseudopotential
        O              6.00    15.99900          O ( 1.00)
        H              1.00     1.00800          H ( 1.00)
     !!!!!!!!!!!!!!!!!!!!!!!!!!!!!!!!!!!!!!!!!!!!!!!!!!!!!!!!!!!!!!!!!!!!
     ------------- 


     No symmetry found



   Cartesian axes

     site n.     atom                  positions (alat units)
         1           O   tau(   1) = (   0.0432879   0.1893481   0.2759068  )
         2           H   tau(   2) = (   0.1194799   0.0296197   0.4600549  )
         3           H   tau(   3) = (   0.8720186   0.2562383   0.3746342  )
         4           O   tau(   4) = (   0.2145834   0.3676384   0.8988446  )
         5           H   tau(   5) = (   0.0320438   0.2205125   0.8560468  )
         6           H   tau(   6) = (   0.3115627   0.1845056   0.8621211  )
         7           O   tau(   7) = (   0.2401714   0.1901034   0.2070099  )
         8           H   tau(   8) = (   0.3800098   0.2376326   0.0668542  )
         9           H   tau(   9) = (   0.3508452   0.2230730   0.4199477  )
        10           O   tau(  10) = (   0.7214815   0.4661067   0.4609027  )
        11           H   tau(  11) = (   0.5646289   0.2580593   0.4998551  )
        12           H   tau(  12) = (   0.8775003   0.4298511   0.3027538  )
        13           O   tau(  13) = (   0.7283396   0.0651238   0.2022779  )
        14           H   tau(  14) = (   0.7827266   0.2892386   0.1532337  )
        15           H   tau(  15) = (   0.6029279   0.0093820   0.0259421  )
        16           O   tau(  16) = (   0.0182477   0.6494108   0.4756220  )
        17           H   tau(  17) = (   0.1291869   0.6717533   0.6553059  )
        18           H   tau(  18) = (   0.0977057   0.8020283   0.3475020  )
        19           O   tau(  19) = (   0.2597260   0.7588655   0.0442772  )
        20           H   tau(  20) = (   0.2486534   0.5436436   0.1461073  )
        21           H   tau(  21) = (   0.1033697   0.8890985   0.1227835  )
        22           O   tau(  22) = (   0.4694916   0.9076031   0.6570374  )
        23           H   tau(  23) = (   0.3543614   0.7369299   0.7203354  )
        24           H   tau(  24) = (   0.6575331   0.8153877   0.5782448  )
        25           O   tau(  25) = (   0.4827334   0.3050142   0.7639979  )
        26           H   tau(  26) = (   0.4611160   0.0814414   0.8994507  )
        27           H   tau(  27) = (   0.3814296   0.4964300   0.8508792  )
        28           O   tau(  28) = (   0.7592209   0.1027840   0.7065209  )
        29           H   tau(  29) = (   0.8706248   0.2396823   0.5956212  )
        30           H   tau(  30) = (   0.8875583   0.0804658   0.9138737  )
        31           O   tau(  31) = (   0.9599076   0.6253044   0.9922034  )
        32           H   tau(  32) = (   0.9079239   0.8383397   0.0249968  )
        33           H   tau(  33) = (   0.8468508   0.5876154   0.8060019  )
        34           O   tau(  34) = (   0.5233799   0.5058396   0.4290130  )
        35           H   tau(  35) = (   0.5766771   0.7349802   0.3836891  )
        36           H   tau(  36) = (   0.3872983   0.4505527   0.2575992  )

     number of k points=     1  Fermi-Dirac smearing, width (Ry)=  0.0010
                       cart. coord. in units 2pi/alat
        k(    1) = (   0.0000000   0.0000000   0.0000000), wk =   2.0000000

     Dense  grid:   165141 G-vectors     FFT dimensions: (  72,  72,  72)

     Smooth grid:    58269 G-vectors     FFT dimensions: (  50,  50,  50)

     Estimated max dynamical RAM per process >      63.82 MB

     Estimated total dynamical RAM >     510.56 MB

     Initial potential from superposition of free atoms

     starting charge   93.69108, renormalised to   96.00000
     Starting wfcs are   72 randomized atomic wfcs

     convergence has been achieved in  18 iterations
 
     Parallelization info
     --------------------
     sticks:   dense  smooth     PW     G-vecs:    dense   smooth      PW
     Min         455     226     55                20641     7282     892
     Max         456     227     56                20644     7285     895
     Sum        3641    1813    441               165141    58269    7153
 


     bravais-lattice index     =            0
     lattice parameter (alat)  =       8.2000  a.u.
     unit-cell volume          =     551.3680 (a.u.)^3
     number of atoms/cell      =           36
     number of atomic types    =            2
     number of electrons       =        96.00
     number of Kohn-Sham states=           58
     kinetic-energy cutoff     =      85.0000  Ry
     charge density cutoff     =     680.0000  Ry
     convergence threshold     =      1.0E-08
     mixing beta               =       0.3000
     number of iterations used =            8  plain     mixing
     Exchange-correlation      =  SLA  PW   PBE  PBE ( 1  4  3  4 0 0)
     nstep                     =         2000

 

     -- for PIMD -- 
     !!!!!!!!!!!!!!!!!!!!!!!! notice !!!!!!!!!!!!!!!!!!!!!!!!!!!!!!!!!!!
     ** Lattice vectors are forced to be those in PIMD input.         **
     ** See above. Lattice vectors in PIMD have already been written. **
     ** The following values of celldm in QE input are not used !     **

     celldm(1) =   15.495754 !!! not used !!!
     celldm(2) =    0.000000 !!! not used !!!
     celldm(3) =    0.000000 !!! not used !!!
     celldm(4) =    0.000000 !!! not used !!!
     celldm(5) =    0.000000 !!! not used !!!
     celldm(6) =    0.000000 !!! not used !!!
     !!!!!!!!!!!!!!!!!!!!!!!!!!!!!!!!!!!!!!!!!!!!!!!!!!!!!!!!!!!!!!!!!!!
     ------------- 

     crystal axes: (cart. coord. in units of alat)
               a(1) = (   1.000000   0.000000   0.000000 )  
               a(2) = (   0.000000   1.000000   0.000000 )  
               a(3) = (   0.000000   0.000000   1.000000 )  

     reciprocal axes: (cart. coord. in units 2 pi/alat)
               b(1) = (  1.000000  0.000000  0.000000 )  
               b(2) = (  0.000000  1.000000  0.000000 )  
               b(3) = (  0.000000  0.000000  1.000000 )  


     PseudoPot. # 1 for O  read from file:
     ./O.pbe-rrkjus.UPF
     MD5 check sum: 390ba29e75625707450f3bd3f0eb6be9
     Pseudo is Ultrasoft, Zval =  6.0
     Generated by new atomic code, or converted to UPF format
     Using radial grid of 1269 points,  4 beta functions with: 
                l(1) =   0
                l(2) =   0
                l(3) =   1
                l(4) =   1
     Q(r) pseudized with 0 coefficients 


     PseudoPot. # 2 for H  read from file:
     ./H.pbe-rrkjus.UPF
     MD5 check sum: 7cc9d459525c9a0585f487a71c3c9563
     Pseudo is Ultrasoft, Zval =  1.0
     Generated by new atomic code, or converted to UPF format
     Using radial grid of 1061 points,  2 beta functions with: 
                l(1) =   0
                l(2) =   0
     Q(r) pseudized with 0 coefficients 


     -- for PIMD -- 
     !!!!!!!!!!!!!!!!!!!!!!!! notice !!!!!!!!!!!!!!!!!!!!!!!!!!!!!!!!!!!!
     ** Each atomic mass is forced to be that in PIMD input.           **
     ** See above. Each atomic mass in PIMD has already been written.  **
     ** The following values of atomic mass in QE input are not used ! **

     atomic species   valence  mass(!not used)   pseudopotential
        O              6.00    15.99900          O ( 1.00)
        H              1.00     1.00800          H ( 1.00)
     !!!!!!!!!!!!!!!!!!!!!!!!!!!!!!!!!!!!!!!!!!!!!!!!!!!!!!!!!!!!!!!!!!!!
     ------------- 


     No symmetry found



   Cartesian axes

     site n.     atom                  positions (alat units)
         1           O   tau(   1) = (   0.0410410   0.1890926   0.2772598  )
         2           H   tau(   2) = (   0.1165756   0.0259453   0.4660374  )
         3           H   tau(   3) = (   0.8686608   0.2526589   0.3788284  )
         4           O   tau(   4) = (   0.2130404   0.3686482   0.8984614  )
         5           H   tau(   5) = (   0.0290857   0.2179535   0.8595918  )
         6           H   tau(   6) = (   0.3059551   0.1776469   0.8592050  )
         7           O   tau(   7) = (   0.2427425   0.1896623   0.2059693  )
         8           H   tau(   8) = (   0.3844095   0.2356726   0.0695357  )
         9           H   tau(   9) = (   0.3553466   0.2192966   0.4238991  )
        10           O   tau(  10) = (   0.7241764   0.4647204   0.4620655  )
        11           H   tau(  11) = (   0.5602369   0.2510565   0.5004141  )
        12           H   tau(  12) = (   0.8810523   0.4354546   0.2970622  )
        13           O   tau(  13) = (   0.7272455   0.0643842   0.2026596  )
        14           H   tau(  14) = (   0.7789181   0.2919461   0.1488258  )
        15           H   tau(  15) = (   0.5997324   0.0056942   0.0299396  )
        16           O   tau(  16) = (   0.0192079   0.6501565   0.4759197  )
        17           H   tau(  17) = (   0.1312119   0.6722189   0.6555482  )
        18           H   tau(  18) = (   0.1001035   0.8061208   0.3490372  )
        19           O   tau(  19) = (   0.2608113   0.7596555   0.0453919  )
        20           H   tau(  20) = (   0.2521661   0.5410323   0.1480402  )
        21           H   tau(  21) = (   0.1063730   0.8927685   0.1218504  )
        22           O   tau(  22) = (   0.4688184   0.9070574   0.6580988  )
        23           H   tau(  23) = (   0.3569165   0.7332775   0.7217084  )
        24           H   tau(  24) = (   0.6607370   0.8201285   0.5795953  )
        25           O   tau(  25) = (   0.4841707   0.3057952   0.7632355  )
        26           H   tau(  26) = (   0.4639325   0.0761705   0.9022735  )
        27           H   tau(  27) = (   0.3862996   0.5031404   0.8497247  )
        28           O   tau(  28) = (   0.7601605   0.1021580   0.7060685  )
        29           H   tau(  29) = (   0.8737671   0.2388336   0.5980790  )
        30           H   tau(  30) = (   0.8910816   0.0779397   0.9163200  )
        31           O   tau(  31) = (   0.9586190   0.6245336   0.9913648  )
        32           H   tau(  32) = (   0.9041459   0.8423490   0.0224901  )
        33           H   tau(  33) = (   0.8436352   0.5859995   0.8084051  )
        34           O   tau(  34) = (   0.5205258   0.5073978   0.4279300  )
        35           H   tau(  35) = (   0.5726420   0.7392950   0.3792722  )
        36           H   tau(  36) = (   0.3852984   0.4546292   0.2533549  )

     number of k points=     1  Fermi-Dirac smearing, width (Ry)=  0.0010
                       cart. coord. in units 2pi/alat
        k(    1) = (   0.0000000   0.0000000   0.0000000), wk =   2.0000000

     Dense  grid:   165141 G-vectors     FFT dimensions: (  72,  72,  72)

     Smooth grid:    58269 G-vectors     FFT dimensions: (  50,  50,  50)

     Estimated max dynamical RAM per process >      63.82 MB

     Estimated total dynamical RAM >     510.56 MB

     Initial potential from superposition of free atoms

     starting charge   93.69108, renormalised to   96.00000
     Starting wfcs are   72 randomized atomic wfcs

     convergence has been achieved in  17 iterations
 
     Parallelization info
     --------------------
     sticks:   dense  smooth     PW     G-vecs:    dense   smooth      PW
     Min         455     226     55                20641     7282     892
     Max         456     227     56                20644     7285     895
     Sum        3641    1813    441               165141    58269    7153
 


     bravais-lattice index     =            0
     lattice parameter (alat)  =       8.2000  a.u.
     unit-cell volume          =     551.3680 (a.u.)^3
     number of atoms/cell      =           36
     number of atomic types    =            2
     number of electrons       =        96.00
     number of Kohn-Sham states=           58
     kinetic-energy cutoff     =      85.0000  Ry
     charge density cutoff     =     680.0000  Ry
     convergence threshold     =      1.0E-08
     mixing beta               =       0.3000
     number of iterations used =            8  plain     mixing
     Exchange-correlation      =  SLA  PW   PBE  PBE ( 1  4  3  4 0 0)
     nstep                     =         2000

 

     -- for PIMD -- 
     !!!!!!!!!!!!!!!!!!!!!!!! notice !!!!!!!!!!!!!!!!!!!!!!!!!!!!!!!!!!!
     ** Lattice vectors are forced to be those in PIMD input.         **
     ** See above. Lattice vectors in PIMD have already been written. **
     ** The following values of celldm in QE input are not used !     **

     celldm(1) =   15.495754 !!! not used !!!
     celldm(2) =    0.000000 !!! not used !!!
     celldm(3) =    0.000000 !!! not used !!!
     celldm(4) =    0.000000 !!! not used !!!
     celldm(5) =    0.000000 !!! not used !!!
     celldm(6) =    0.000000 !!! not used !!!
     !!!!!!!!!!!!!!!!!!!!!!!!!!!!!!!!!!!!!!!!!!!!!!!!!!!!!!!!!!!!!!!!!!!
     ------------- 

     crystal axes: (cart. coord. in units of alat)
               a(1) = (   1.000000   0.000000   0.000000 )  
               a(2) = (   0.000000   1.000000   0.000000 )  
               a(3) = (   0.000000   0.000000   1.000000 )  

     reciprocal axes: (cart. coord. in units 2 pi/alat)
               b(1) = (  1.000000  0.000000  0.000000 )  
               b(2) = (  0.000000  1.000000  0.000000 )  
               b(3) = (  0.000000  0.000000  1.000000 )  


     PseudoPot. # 1 for O  read from file:
     ./O.pbe-rrkjus.UPF
     MD5 check sum: 390ba29e75625707450f3bd3f0eb6be9
     Pseudo is Ultrasoft, Zval =  6.0
     Generated by new atomic code, or converted to UPF format
     Using radial grid of 1269 points,  4 beta functions with: 
                l(1) =   0
                l(2) =   0
                l(3) =   1
                l(4) =   1
     Q(r) pseudized with 0 coefficients 


     PseudoPot. # 2 for H  read from file:
     ./H.pbe-rrkjus.UPF
     MD5 check sum: 7cc9d459525c9a0585f487a71c3c9563
     Pseudo is Ultrasoft, Zval =  1.0
     Generated by new atomic code, or converted to UPF format
     Using radial grid of 1061 points,  2 beta functions with: 
                l(1) =   0
                l(2) =   0
     Q(r) pseudized with 0 coefficients 


     -- for PIMD -- 
     !!!!!!!!!!!!!!!!!!!!!!!! notice !!!!!!!!!!!!!!!!!!!!!!!!!!!!!!!!!!!!
     ** Each atomic mass is forced to be that in PIMD input.           **
     ** See above. Each atomic mass in PIMD has already been written.  **
     ** The following values of atomic mass in QE input are not used ! **

     atomic species   valence  mass(!not used)   pseudopotential
        O              6.00    15.99900          O ( 1.00)
        H              1.00     1.00800          H ( 1.00)
     !!!!!!!!!!!!!!!!!!!!!!!!!!!!!!!!!!!!!!!!!!!!!!!!!!!!!!!!!!!!!!!!!!!!
     ------------- 


     No symmetry found



   Cartesian axes

     site n.     atom                  positions (alat units)
         1           O   tau(   1) = (   0.0390209   0.1889512   0.2785775  )
         2           H   tau(   2) = (   0.1133735   0.0228895   0.4717436  )
         3           H   tau(   3) = (   0.8645603   0.2494635   0.3828983  )
         4           O   tau(   4) = (   0.2115932   0.3699784   0.8977699  )
         5           H   tau(   5) = (   0.0265764   0.2151236   0.8651923  )
         6           H   tau(   6) = (   0.3004628   0.1712949   0.8554508  )
         7           O   tau(   7) = (   0.2450976   0.1890406   0.2050256  )
         8           H   tau(   8) = (   0.3891304   0.2337136   0.0716117  )
         9           H   tau(   9) = (   0.3593766   0.2152642   0.4274111  )
        10           O   tau(  10) = (   0.7265876   0.4633571   0.4631793  )
        11           H   tau(  11) = (   0.5571107   0.2444627   0.5001293  )
        12           H   tau(  12) = (   0.8838317   0.4405592   0.2915919  )
        13           O   tau(  13) = (   0.7261938   0.0635843   0.2032021  )
        14           H   tau(  14) = (   0.7753735   0.2941128   0.1448548  )
        15           H   tau(  15) = (   0.5965193   0.0018476   0.0324726  )
        16           O   tau(  16) = (   0.0200956   0.6509236   0.4761960  )
        17           H   tau(  17) = (   0.1329317   0.6732394   0.6562653  )
        18           H   tau(  18) = (   0.1023516   0.8133929   0.3508120  )
        19           O   tau(  19) = (   0.2618241   0.7605022   0.0462410  )
        20           H   tau(  20) = (   0.2550225   0.5391301   0.1498309  )
        21           H   tau(  21) = (   0.1090565   0.8961379   0.1201655  )
        22           O   tau(  22) = (   0.4681596   0.9063684   0.6588659  )
        23           H   tau(  23) = (   0.3588390   0.7280835   0.7237312  )
        24           H   tau(  24) = (   0.6639317   0.8228078   0.5810247  )
        25           O   tau(  25) = (   0.4855175   0.3065416   0.7626298  )
        26           H   tau(  26) = (   0.4658637   0.0710836   0.9043612  )
        27           H   tau(  27) = (   0.3907338   0.5091090   0.8490081  )
        28           O   tau(  28) = (   0.7611092   0.1015376   0.7055243  )
        29           H   tau(  29) = (   0.8772505   0.2388897   0.6008573  )
        30           H   tau(  30) = (   0.8947737   0.0751852   0.9188411  )
        31           O   tau(  31) = (   0.9573709   0.6236071   0.9907404  )
        32           H   tau(  32) = (   0.9007474   0.8459419   0.0199600  )
        33           H   tau(  33) = (   0.8402645   0.5843644   0.8115173  )
        34           O   tau(  34) = (   0.5179544   0.5089257   0.4269087  )
        35           H   tau(  35) = (   0.5686517   0.7431330   0.3752030  )
        36           H   tau(  36) = (   0.3833105   0.4592905   0.2496174  )

     number of k points=     1  Fermi-Dirac smearing, width (Ry)=  0.0010
                       cart. coord. in units 2pi/alat
        k(    1) = (   0.0000000   0.0000000   0.0000000), wk =   2.0000000

     Dense  grid:   165141 G-vectors     FFT dimensions: (  72,  72,  72)

     Smooth grid:    58269 G-vectors     FFT dimensions: (  50,  50,  50)

     Estimated max dynamical RAM per process >      63.82 MB

     Estimated total dynamical RAM >     510.56 MB

     Initial potential from superposition of free atoms

     starting charge   93.69108, renormalised to   96.00000
     Starting wfcs are   72 randomized atomic wfcs

     convergence has been achieved in  18 iterations
 
     Parallelization info
     --------------------
     sticks:   dense  smooth     PW     G-vecs:    dense   smooth      PW
     Min         455     226     55                20641     7282     892
     Max         456     227     56                20644     7285     895
     Sum        3641    1813    441               165141    58269    7153
 


     bravais-lattice index     =            0
     lattice parameter (alat)  =       8.2000  a.u.
     unit-cell volume          =     551.3680 (a.u.)^3
     number of atoms/cell      =           36
     number of atomic types    =            2
     number of electrons       =        96.00
     number of Kohn-Sham states=           58
     kinetic-energy cutoff     =      85.0000  Ry
     charge density cutoff     =     680.0000  Ry
     convergence threshold     =      1.0E-08
     mixing beta               =       0.3000
     number of iterations used =            8  plain     mixing
     Exchange-correlation      =  SLA  PW   PBE  PBE ( 1  4  3  4 0 0)
     nstep                     =         2000

 

     -- for PIMD -- 
     !!!!!!!!!!!!!!!!!!!!!!!! notice !!!!!!!!!!!!!!!!!!!!!!!!!!!!!!!!!!!
     ** Lattice vectors are forced to be those in PIMD input.         **
     ** See above. Lattice vectors in PIMD have already been written. **
     ** The following values of celldm in QE input are not used !     **

     celldm(1) =   15.495754 !!! not used !!!
     celldm(2) =    0.000000 !!! not used !!!
     celldm(3) =    0.000000 !!! not used !!!
     celldm(4) =    0.000000 !!! not used !!!
     celldm(5) =    0.000000 !!! not used !!!
     celldm(6) =    0.000000 !!! not used !!!
     !!!!!!!!!!!!!!!!!!!!!!!!!!!!!!!!!!!!!!!!!!!!!!!!!!!!!!!!!!!!!!!!!!!
     ------------- 

     crystal axes: (cart. coord. in units of alat)
               a(1) = (   1.000000   0.000000   0.000000 )  
               a(2) = (   0.000000   1.000000   0.000000 )  
               a(3) = (   0.000000   0.000000   1.000000 )  

     reciprocal axes: (cart. coord. in units 2 pi/alat)
               b(1) = (  1.000000  0.000000  0.000000 )  
               b(2) = (  0.000000  1.000000  0.000000 )  
               b(3) = (  0.000000  0.000000  1.000000 )  


     PseudoPot. # 1 for O  read from file:
     ./O.pbe-rrkjus.UPF
     MD5 check sum: 390ba29e75625707450f3bd3f0eb6be9
     Pseudo is Ultrasoft, Zval =  6.0
     Generated by new atomic code, or converted to UPF format
     Using radial grid of 1269 points,  4 beta functions with: 
                l(1) =   0
                l(2) =   0
                l(3) =   1
                l(4) =   1
     Q(r) pseudized with 0 coefficients 


     PseudoPot. # 2 for H  read from file:
     ./H.pbe-rrkjus.UPF
     MD5 check sum: 7cc9d459525c9a0585f487a71c3c9563
     Pseudo is Ultrasoft, Zval =  1.0
     Generated by new atomic code, or converted to UPF format
     Using radial grid of 1061 points,  2 beta functions with: 
                l(1) =   0
                l(2) =   0
     Q(r) pseudized with 0 coefficients 


     -- for PIMD -- 
     !!!!!!!!!!!!!!!!!!!!!!!! notice !!!!!!!!!!!!!!!!!!!!!!!!!!!!!!!!!!!!
     ** Each atomic mass is forced to be that in PIMD input.           **
     ** See above. Each atomic mass in PIMD has already been written.  **
     ** The following values of atomic mass in QE input are not used ! **

     atomic species   valence  mass(!not used)   pseudopotential
        O              6.00    15.99900          O ( 1.00)
        H              1.00     1.00800          H ( 1.00)
     !!!!!!!!!!!!!!!!!!!!!!!!!!!!!!!!!!!!!!!!!!!!!!!!!!!!!!!!!!!!!!!!!!!!
     ------------- 


     No symmetry found



   Cartesian axes

     site n.     atom                  positions (alat units)
         1           O   tau(   1) = (   0.0371958   0.1889615   0.2798389  )
         2           H   tau(   2) = (   0.1104833   0.0203055   0.4771315  )
         3           H   tau(   3) = (   0.8611251   0.2466550   0.3868962  )
         4           O   tau(   4) = (   0.2102297   0.3709457   0.8968496  )
         5           H   tau(   5) = (   0.0245797   0.2121159   0.8697721  )
         6           H   tau(   6) = (   0.2950157   0.1653356   0.8516566  )
         7           O   tau(   7) = (   0.2472686   0.1882765   0.2041699  )
         8           H   tau(   8) = (   0.3936468   0.2317036   0.0729564  )
         9           H   tau(   9) = (   0.3629982   0.2112670   0.4305548  )
        10           O   tau(  10) = (   0.7287696   0.4620404   0.4642422  )
        11           H   tau(  11) = (   0.5542398   0.2381801   0.4991774  )
        12           H   tau(  12) = (   0.8860280   0.4452203   0.2864500  )
        13           O   tau(  13) = (   0.7251927   0.0627366   0.2039738  )
        14           H   tau(  14) = (   0.7720899   0.2960674   0.1410208  )
        15           H   tau(  15) = (   0.5935802   0.9980925   0.0348360  )
        16           O   tau(  16) = (   0.0209648   0.6516701   0.4764181  )
        17           H   tau(  17) = (   0.1341877   0.6753703   0.6574765  )
        18           H   tau(  18) = (   0.1045046   0.8176443   0.3532386  )
        19           O   tau(  19) = (   0.2628396   0.7613727   0.0468499  )
        20           H   tau(  20) = (   0.2572201   0.5380351   0.1517515  )
        21           H   tau(  21) = (   0.1114010   0.8993646   0.1175999  )
        22           O   tau(  22) = (   0.4675208   0.9056078   0.6593184  )
        23           H   tau(  23) = (   0.3603466   0.7239621   0.7262555  )
        24           H   tau(  24) = (   0.6667579   0.8243603   0.5825837  )
        25           O   tau(  25) = (   0.4867820   0.3072610   0.7621860  )
        26           H   tau(  26) = (   0.4670496   0.0662730   0.9056048  )
        27           H   tau(  27) = (   0.3948775   0.5144637   0.8487098  )
        28           O   tau(  28) = (   0.7620307   0.1009349   0.7048576  )
        29           H   tau(  29) = (   0.8810493   0.2399588   0.6041101  )
        30           H   tau(  30) = (   0.8984502   0.0722810   0.9214165  )
        31           O   tau(  31) = (   0.9561259   0.6227701   0.9902606  )
        32           H   tau(  32) = (   0.8976602   0.8483689   0.0174097  )
[...]

     starting charge   93.69108, renormalised to   96.00000
     Starting wfcs are   72 randomized atomic wfcs

     convergence has been achieved in  12 iterations

     ***************************************
          PIMD step =         50
     ***************************************

     ***************************************
          alat [a.u.]         8.200000
          omega[a.u.^3]     551.368000
     ***************************************

     ***************************************
          lattice vector [a.u.]
     ***************************************
       1    8.200000    0.000000    0.000000
       2    0.000000    8.200000    0.000000
       3    0.000000    0.000000    8.200000
     ***************************************

     ***************************************
          lattice vector [-]
     ***************************************
       1    1.000000    0.000000    0.000000
       2    0.000000    1.000000    0.000000
       3    0.000000    0.000000    1.000000
     ***************************************

     ***************************************
          coord_xyz [a.u.]
     ***************************************
       1    0.270895    1.787212    2.476229
       2    1.467755    0.816815    4.662990
       3    6.228658    1.405755    3.973784
       4    1.445942    3.096960    7.112290
       5    0.727548    1.422976    7.805324
       6    1.175244    0.192947    6.023374
       7    2.405337    1.443291    1.665409
       8    4.034798    1.917861    8.153012
       9    2.869832    1.497039    4.400935
      10    6.042951    3.658412    3.878421
      11    4.050333    1.042078    3.515211
      12    7.410734    3.819471    1.926612
      13    5.683506    0.290663    1.574537
      14    6.117500    1.886684    0.824992
      15    4.095389    7.326851    0.862970
      16    0.409848    5.586913    3.880998
      17    0.389972    5.658893    5.612247
      18    1.333768    6.943155    3.179677
      19    2.409865    6.409775    0.540761
      20    1.825973    4.720367    0.652318
      21    0.827918    7.858593    0.101564
      22    3.800588    7.145038    5.274872
      23    2.856076    5.617050    5.646060
      24    6.209979    6.938601    5.345480
      25    4.177902    2.722680    6.487597
      26    3.708846    0.042397    6.657546
      27    4.199785    4.617996    7.460098
      28    6.516224    0.677955    5.698570
      29    7.975005    2.103087    5.691280
      30    7.838277    0.116057    7.535143
      31    7.459464    5.025238    7.983809
      32    6.671272    6.678934    0.619574
      33    6.441574    4.288556    6.653728
      34    3.953213    4.437094    3.263143
      35    4.123921    5.980306    2.613154
      36    2.885094    3.121891    2.428907
     ***************************************

     ***************************************
          atomic position [-]
     ***************************************
       1    0.033036    0.217953    0.301979
       2    0.178994    0.099612    0.568657
       3    0.759592    0.171434    0.484608
       4    0.176334    0.377678    0.867352
       5    0.088725    0.173534    0.951869
       6    0.143322    0.023530    0.734558
       7    0.293334    0.176011    0.203099
       8    0.492049    0.233886    0.994270
       9    0.349980    0.182566    0.536699
      10    0.736945    0.446148    0.472978
      11    0.493943    0.127083    0.428684
      12    0.903748    0.465789    0.234953
      13    0.693111    0.035447    0.192017
      14    0.746037    0.230083    0.100609
      15    0.499438    0.893518    0.105240
      16    0.049981    0.681331    0.473292
      17    0.047558    0.690109    0.684420
      18    0.162655    0.846726    0.387765
      19    0.293886    0.781680    0.065946
      20    0.222680    0.575654    0.079551
      21    0.100966    0.958365    0.012386
      22    0.463486    0.871346    0.643277
      23    0.348302    0.685006    0.688544
      24    0.757315    0.846171    0.651888
      25    0.509500    0.332034    0.791170
      26    0.452298    0.005170    0.811896
      27    0.512169    0.563170    0.909768
      28    0.794661    0.082677    0.694948
      29    0.972562    0.256474    0.694059
      30    0.955887    0.014153    0.918920
      31    0.909691    0.612834    0.973635
      32    0.813570    0.814504    0.075558
      33    0.785558    0.522995    0.811430
      34    0.482099    0.541109    0.397944
      35    0.502917    0.729306    0.318677
      36    0.351841    0.380718    0.296208
     ***************************************
 
     Parallelization info
     --------------------
     sticks:   dense  smooth     PW     G-vecs:    dense   smooth      PW
     Min         455     226     55                20641     7282     892
     Max         456     227     56                20644     7285     895
     Sum        3641    1813    441               165141    58269    7153
 


     bravais-lattice index     =            0
     lattice parameter (alat)  =       8.2000  a.u.
     unit-cell volume          =     551.3680 (a.u.)^3
     number of atoms/cell      =           36
     number of atomic types    =            2
     number of electrons       =        96.00
     number of Kohn-Sham states=           58
     kinetic-energy cutoff     =      85.0000  Ry
     charge density cutoff     =     680.0000  Ry
     convergence threshold     =      1.0E-08
     mixing beta               =       0.3000
     number of iterations used =            8  plain     mixing
     Exchange-correlation      =  SLA  PW   PBE  PBE ( 1  4  3  4 0 0)
     nstep                     =         2000

 

     -- for PIMD -- 
     !!!!!!!!!!!!!!!!!!!!!!!! notice !!!!!!!!!!!!!!!!!!!!!!!!!!!!!!!!!!!
     ** Lattice vectors are forced to be those in PIMD input.         **
     ** See above. Lattice vectors in PIMD have already been written. **
     ** The following values of celldm in QE input are not used !     **

     celldm(1) =   15.495754 !!! not used !!!
     celldm(2) =    0.000000 !!! not used !!!
     celldm(3) =    0.000000 !!! not used !!!
     celldm(4) =    0.000000 !!! not used !!!
     celldm(5) =    0.000000 !!! not used !!!
     celldm(6) =    0.000000 !!! not used !!!
     !!!!!!!!!!!!!!!!!!!!!!!!!!!!!!!!!!!!!!!!!!!!!!!!!!!!!!!!!!!!!!!!!!!
     ------------- 

     crystal axes: (cart. coord. in units of alat)
               a(1) = (   1.000000   0.000000   0.000000 )  
               a(2) = (   0.000000   1.000000   0.000000 )  
               a(3) = (   0.000000   0.000000   1.000000 )  

     reciprocal axes: (cart. coord. in units 2 pi/alat)
               b(1) = (  1.000000  0.000000  0.000000 )  
               b(2) = (  0.000000  1.000000  0.000000 )  
               b(3) = (  0.000000  0.000000  1.000000 )  


     PseudoPot. # 1 for O  read from file:
     ./O.pbe-rrkjus.UPF
     MD5 check sum: 390ba29e75625707450f3bd3f0eb6be9
     Pseudo is Ultrasoft, Zval =  6.0
     Generated by new atomic code, or converted to UPF format
     Using radial grid of 1269 points,  4 beta functions with: 
                l(1) =   0
                l(2) =   0
                l(3) =   1
                l(4) =   1
     Q(r) pseudized with 0 coefficients 


     PseudoPot. # 2 for H  read from file:
     ./H.pbe-rrkjus.UPF
     MD5 check sum: 7cc9d459525c9a0585f487a71c3c9563
     Pseudo is Ultrasoft, Zval =  1.0
     Generated by new atomic code, or converted to UPF format
     Using radial grid of 1061 points,  2 beta functions with: 
                l(1) =   0
                l(2) =   0
     Q(r) pseudized with 0 coefficients 


     -- for PIMD -- 
     !!!!!!!!!!!!!!!!!!!!!!!! notice !!!!!!!!!!!!!!!!!!!!!!!!!!!!!!!!!!!!
     ** Each atomic mass is forced to be that in PIMD input.           **
     ** See above. Each atomic mass in PIMD has already been written.  **
     ** The following values of atomic mass in QE input are not used ! **

     atomic species   valence  mass(!not used)   pseudopotential
        O              6.00    15.99900          O ( 1.00)
        H              1.00     1.00800          H ( 1.00)
     !!!!!!!!!!!!!!!!!!!!!!!!!!!!!!!!!!!!!!!!!!!!!!!!!!!!!!!!!!!!!!!!!!!!
     ------------- 


     No symmetry found



   Cartesian axes

     site n.     atom                  positions (alat units)
         1           O   tau(   1) = (   0.0330360   0.2179527   0.3019792  )
         2           H   tau(   2) = (   0.1789945   0.0996116   0.5686573  )
         3           H   tau(   3) = (   0.7595924   0.1714335   0.4846078  )
         4           O   tau(   4) = (   0.1763344   0.3776781   0.8673525  )
         5           H   tau(   5) = (   0.0887254   0.1735337   0.9518688  )
         6           H   tau(   6) = (   0.1433224   0.0235302   0.7345579  )
         7           O   tau(   7) = (   0.2933338   0.1760111   0.2030986  )
         8           H   tau(   8) = (   0.4920485   0.2338855   0.9942698  )
         9           H   tau(   9) = (   0.3499795   0.1825657   0.5366994  )
        10           O   tau(  10) = (   0.7369452   0.4461478   0.4729781  )
        11           H   tau(  11) = (   0.4939431   0.1270826   0.4286843  )
        12           H   tau(  12) = (   0.9037480   0.4657891   0.2349527  )
        13           O   tau(  13) = (   0.6931105   0.0354467   0.1920167  )
        14           H   tau(  14) = (   0.7460365   0.2300834   0.1006087  )
        15           H   tau(  15) = (   0.4994377   0.8935184   0.1052403  )
        16           O   tau(  16) = (   0.0499814   0.6813309   0.4732925  )
        17           H   tau(  17) = (   0.0475575   0.6901089   0.6844203  )
        18           H   tau(  18) = (   0.1626546   0.8467262   0.3877655  )
        19           O   tau(  19) = (   0.2938860   0.7816799   0.0659464  )
        20           H   tau(  20) = (   0.2226796   0.5756545   0.0795510  )
        21           H   tau(  21) = (   0.1009656   0.9583650   0.0123859  )
        22           O   tau(  22) = (   0.4634864   0.8713461   0.6432771  )
        23           H   tau(  23) = (   0.3483019   0.6850060   0.6885439  )
        24           H   tau(  24) = (   0.7573146   0.8461709   0.6518877  )
        25           O   tau(  25) = (   0.5095003   0.3320342   0.7911704  )
        26           H   tau(  26) = (   0.4522983   0.0051703   0.8118959  )
        27           H   tau(  27) = (   0.5121689   0.5631702   0.9097681  )
        28           O   tau(  28) = (   0.7946614   0.0826774   0.6949475  )
        29           H   tau(  29) = (   0.9725616   0.2564740   0.6940586  )
        30           H   tau(  30) = (   0.9558874   0.0141533   0.9189198  )
        31           O   tau(  31) = (   0.9096907   0.6128339   0.9736352  )
        32           H   tau(  32) = (   0.8135698   0.8145041   0.0755579  )
        33           H   tau(  33) = (   0.7855578   0.5229946   0.8114303  )
        34           O   tau(  34) = (   0.4820992   0.5411090   0.3979442  )
        35           H   tau(  35) = (   0.5029171   0.7293056   0.3186773  )
        36           H   tau(  36) = (   0.3518408   0.3807184   0.2962081  )

     number of k points=     1  Fermi-Dirac smearing, width (Ry)=  0.0010
                       cart. coord. in units 2pi/alat
        k(    1) = (   0.0000000   0.0000000   0.0000000), wk =   2.0000000

     Dense  grid:   165141 G-vectors     FFT dimensions: (  72,  72,  72)

     Smooth grid:    58269 G-vectors     FFT dimensions: (  50,  50,  50)

     Estimated max dynamical RAM per process >      63.82 MB

     Estimated total dynamical RAM >     510.56 MB

     Initial potential from superposition of free atoms

     starting charge   93.69108, renormalised to   96.00000
     Starting wfcs are   72 randomized atomic wfcs
     NEW-OLD atomic charge density approx. for the potential

     total cpu time spent up to now is       72.1 secs

     Self-consistent Calculation

     iteration #  1     ecut=    85.00 Ry     beta= 0.30
     Davidson diagonalization with overlap
     ethr =  1.00E-06,  avg # of iterations = 11.0

     total cpu time spent up to now is       72.3 secs

     total energy              =    -402.18682090 Ry
     Harris-Foulkes estimate   =    -405.33217641 Ry
     estimated scf accuracy    <       7.54715035 Ry

     iteration #  2     ecut=    85.00 Ry     beta= 0.30
     Davidson diagonalization with overlap
     ethr =  7.86E-03,  avg # of iterations =  3.0

     total cpu time spent up to now is       72.4 secs

     total energy              =    -403.16909393 Ry
     Harris-Foulkes estimate   =    -403.46209265 Ry
     estimated scf accuracy    <       1.03516701 Ry

     iteration #  3     ecut=    85.00 Ry     beta= 0.30
     Davidson diagonalization with overlap
     ethr =  1.08E-03,  avg # of iterations =  2.0

     total cpu time spent up to now is       72.5 secs

     total energy              =    -403.13037712 Ry
     Harris-Foulkes estimate   =    -403.22913264 Ry
     estimated scf accuracy    <       0.31559677 Ry

     iteration #  4     ecut=    85.00 Ry     beta= 0.30
     Davidson diagonalization with overlap
     ethr =  3.29E-04,  avg # of iterations =  3.0

     total cpu time spent up to now is       72.6 secs

     total energy              =    -403.14444771 Ry
     Harris-Foulkes estimate   =    -403.15289238 Ry
     estimated scf accuracy    <       0.04665707 Ry

     iteration #  5     ecut=    85.00 Ry     beta= 0.30
     Davidson diagonalization with overlap
     ethr =  4.86E-05,  avg # of iterations =  3.0

     total cpu time spent up to now is       72.6 secs

     total energy              =    -403.14653521 Ry
     Harris-Foulkes estimate   =    -403.14789941 Ry
     estimated scf accuracy    <       0.00957548 Ry

     iteration #  6     ecut=    85.00 Ry     beta= 0.30
     Davidson diagonalization with overlap
     ethr =  9.97E-06,  avg # of iterations =  5.0

     total cpu time spent up to now is       72.7 secs

     total energy              =    -403.14725166 Ry
     Harris-Foulkes estimate   =    -403.14747781 Ry
     estimated scf accuracy    <       0.00171148 Ry

     iteration #  7     ecut=    85.00 Ry     beta= 0.30
     Davidson diagonalization with overlap
     ethr =  1.78E-06,  avg # of iterations =  3.0

     total cpu time spent up to now is       72.8 secs

     total energy              =    -403.14736752 Ry
     Harris-Foulkes estimate   =    -403.14740392 Ry
     estimated scf accuracy    <       0.00032413 Ry

     iteration #  8     ecut=    85.00 Ry     beta= 0.30
     Davidson diagonalization with overlap
     ethr =  3.38E-07,  avg # of iterations =  2.0

     total cpu time spent up to now is       72.9 secs

     total energy              =    -403.14739142 Ry
     Harris-Foulkes estimate   =    -403.14739568 Ry
     estimated scf accuracy    <       0.00004095 Ry

     iteration #  9     ecut=    85.00 Ry     beta= 0.30
     Davidson diagonalization with overlap
     ethr =  4.27E-08,  avg # of iterations =  2.0

     total cpu time spent up to now is       73.0 secs

     total energy              =    -403.14739638 Ry
     Harris-Foulkes estimate   =    -403.14739657 Ry
     estimated scf accuracy    <       0.00000493 Ry

     iteration # 10     ecut=    85.00 Ry     beta= 0.30
     Davidson diagonalization with overlap
     ethr =  5.14E-09,  avg # of iterations =  2.0

     total cpu time spent up to now is       73.1 secs

     total energy              =    -403.14739691 Ry
     Harris-Foulkes estimate   =    -403.14739684 Ry
     estimated scf accuracy    <       0.00000075 Ry

     iteration # 11     ecut=    85.00 Ry     beta= 0.30
     Davidson diagonalization with overlap
     ethr =  7.76E-10,  avg # of iterations =  2.0

     total cpu time spent up to now is       73.1 secs

     total energy              =    -403.14739699 Ry
     Harris-Foulkes estimate   =    -403.14739698 Ry
     estimated scf accuracy    <       0.00000008 Ry

     iteration # 12     ecut=    85.00 Ry     beta= 0.30
     Davidson diagonalization with overlap
     ethr =  8.32E-11,  avg # of iterations =  2.0

     total cpu time spent up to now is       73.2 secs

     End of self-consistent calculation

          k = 0.0000 0.0000 0.0000 (  7153 PWs)   bands (ev):

   -16.3894 -13.1442 -11.7305  -9.9718  -9.6075  -9.4298  -8.9211  -6.3954
    -6.1457  -4.8687  -4.4436  -2.7469  -2.4858  -0.9363  -0.5120   0.0661
     0.5605   1.5549   2.4362   2.9976   3.7560   4.1556   4.5868   5.2561
     6.5964   7.4412   7.6483   8.0208   8.7560   9.5374   9.8587   9.9134
    10.2151  10.5396  10.8130  11.5426  12.1104  12.5491  12.7013  13.1637
    13.7460  14.2943  14.8775  15.2583  15.4527  15.7500  16.8866  17.3258
    19.8005  21.6492  22.2108  22.8119  23.4921  23.9631  24.5470  24.7198
    25.2379  25.9349

     the Fermi energy is    18.0161 ev

!    total energy              =    -403.14739700 Ry
     Harris-Foulkes estimate   =    -403.14739700 Ry
     estimated scf accuracy    <          7.8E-09 Ry

     convergence has been achieved in  12 iterations

     Forces acting on atoms (cartesian axes, Ry/au):

     atom    1 type  1   force =     0.02771284    0.16447752   -0.00056735
     atom    2 type  2   force =    -0.00087190    0.03407721    0.04312137
     atom    3 type  2   force =    -0.04225590   -0.02040435    0.02593160
     atom    4 type  1   force =    -0.16441541    0.00409097   -0.24112691
     atom    5 type  2   force =    -0.01709603   -0.00801025   -0.03001045
     atom    6 type  2   force =     0.01745586   -0.03530302   -0.00220381
     atom    7 type  1   force =     0.15295361   -0.02505095    0.03969888
     atom    8 type  2   force =    -0.01952150   -0.00187339    0.00643201
     atom    9 type  2   force =     0.00259334    0.03824982    0.08516374
     atom   10 type  1   force =    -0.03983188    0.02624412   -0.11955090
     atom   11 type  2   force =    -0.04395346   -0.01624663    0.00568405
     atom   12 type  2   force =     0.02133165   -0.04509912    0.03819322
     atom   13 type  1   force =    -0.10726595   -0.16280954   -0.00718236
     atom   14 type  2   force =     0.02942230   -0.03353766    0.01733362
     atom   15 type  2   force =    -0.00907550    0.00833061   -0.00758202
     atom   16 type  1   force =     0.14233237    0.23230393   -0.14946489
     atom   17 type  2   force =     0.00355321    0.01300451    0.06337510
     atom   18 type  2   force =    -0.01786728    0.00864126    0.00619519
     atom   19 type  1   force =     0.11841461   -0.08398189    0.03657083
     atom   20 type  2   force =     0.00786869   -0.04377615   -0.03870784
     atom   21 type  2   force =    -0.01508241   -0.02151168   -0.04328974
     atom   22 type  1   force =     0.06679010   -0.32928140    0.13330555
     atom   23 type  2   force =     0.00382911    0.02913126   -0.00758945
     atom   24 type  2   force =     0.01426442    0.04781191   -0.00327182
     atom   25 type  1   force =     0.06227685    0.17501331    0.21924018
     atom   26 type  2   force =    -0.01085431   -0.02960130   -0.02355682
     atom   27 type  2   force =    -0.03302038   -0.03062388   -0.02205321
     atom   28 type  1   force =     0.27534937   -0.07492768    0.02734137
     atom   29 type  2   force =     0.00567036    0.00924273    0.00259237
     atom   30 type  2   force =     0.04843733   -0.01157557    0.02640039
     atom   31 type  1   force =    -0.51303908    0.09763500    0.08268884
     atom   32 type  2   force =     0.01114188   -0.00913321    0.01069378
     atom   33 type  2   force =    -0.00209237    0.00488674   -0.01999014
     atom   34 type  1   force =    -0.01521577   -0.01639632   -0.07687137
     atom   35 type  2   force =     0.02388764    0.11635416   -0.03602580
     atom   36 type  2   force =     0.01617358   -0.01035105   -0.04091721

     Total force =     0.979698     Total SCF correction =     0.000207
